 written on  7Apr2026 at 10:55:14 
   2.4600000000000000        0.0000000000000000        0.0000000000000000     
  -1.2300000000000000        2.1304224933000002        0.0000000000000000     
   0.0000000000000000        0.0000000000000000        20.000000000000000     
           8
          83
    1    1    2    1    1    1    1    1    1    2    1    1    1    1    1
    1    1    1    1    1    1    1    1    1    1    1    1    1    1    1
    1    1    1    1    1    1    1    1    1    1    1    1    1    1    1
    1    1    1    1    1    1    1    1    1    1    1    1    1    1    1
    1    1    1    1    1    1    1    1    1    1    1    1    1    2    1
    1    1    1    1    1    2    1    1

   -5   -3    0
    1    1    0.20784559E-02  0.29910310E-11
    2    1   -0.34528858E-10 -0.62111936E-11
    3    1   -0.26863144E-02 -0.23621358E-10
    4    1   -0.34034905E-02 -0.70498225E-11
    5    1    0.13547093E-02 -0.75477402E-11
    6    1    0.14708333E-09 -0.11940264E-11
    7    1    0.28978519E-02 -0.32695079E-11
    8    1   -0.35365979E-03  0.10762679E-10
    1    2   -0.34126193E-10  0.21202561E-12
    2    2    0.51490755E-04  0.19802597E-11
    3    2    0.27714227E-10  0.31898356E-11
    4    2    0.18512387E-10  0.16233963E-11
    5    2   -0.36265636E-10 -0.21309858E-11
    6    2    0.11322692E-03  0.40217829E-12
    7    2   -0.56114891E-10  0.98952155E-11
    8    2   -0.54129916E-10 -0.27632189E-11
    1    3   -0.17937566E-02  0.32516915E-11
    2    3    0.42136498E-10 -0.18521242E-10
    3    3    0.15761327E-02  0.16772911E-10
    4    3    0.18206306E-02  0.18743470E-10
    5    3   -0.28978516E-02 -0.14850473E-11
    6    3   -0.30910690E-09 -0.23985383E-10
    7    3   -0.15785381E-03 -0.75119034E-12
    8    3    0.81564683E-03  0.15257323E-10
    1    4    0.96483043E-04  0.38374234E-11
    2    4   -0.35601389E-10 -0.56242904E-11
    3    4    0.11313893E-02 -0.10129973E-10
    4    4   -0.29421953E-02 -0.52310933E-12
    5    4    0.35365945E-03  0.18667290E-11
    6    4   -0.25641636E-09 -0.22104816E-11
    7    4    0.81564675E-03 -0.42347653E-11
    8    4   -0.36951673E-02 -0.73158909E-11
    1    5   -0.52018142E-03 -0.35445761E-11
    2    5   -0.26362724E-10 -0.11564108E-11
    3    5   -0.46329391E-03  0.18631992E-10
    4    5   -0.19713586E-02  0.20745211E-11
    5    5    0.20784548E-02  0.86508960E-11
    6    5    0.23838905E-09  0.12234019E-11
    7    5    0.17937568E-02  0.99776099E-11
    8    5   -0.96483331E-04 -0.67365419E-11
    1    6   -0.13642882E-11 -0.10131798E-10
    2    6    0.12436759E-03  0.77136214E-12
    3    6    0.10170971E-09  0.25386086E-10
    4    6   -0.42111470E-09 -0.14389755E-10
    5    6    0.59903165E-09 -0.78515405E-11
    6    6    0.51490751E-04 -0.19607406E-11
    7    6    0.41328783E-09  0.24628763E-10
    8    6   -0.32258312E-09 -0.25815803E-11
    1    7    0.46329381E-03  0.43571830E-11
    2    7    0.14607266E-10 -0.34626988E-11
    3    7    0.40793664E-03 -0.23869379E-11
    4    7    0.14688081E-02  0.34502054E-11
    5    7    0.26863147E-02  0.53737657E-12
    6    7    0.44505719E-09  0.20240428E-12
    7    7    0.15761338E-02 -0.94048415E-11
    8    7    0.11313890E-02  0.20312461E-10
    1    8    0.19713581E-02  0.47869486E-11
    2    8   -0.72657402E-10  0.19108707E-10
    3    8    0.14688088E-02  0.96068986E-11
    4    8   -0.14633758E-02 -0.26327274E-11
    5    8    0.34034900E-02  0.56698014E-11
    6    8    0.22600929E-09  0.18826056E-10
    7    8    0.18206311E-02 -0.12828526E-10
    8    8   -0.29421954E-02 -0.20726872E-10

   -5   -2    0
    1    1   -0.22365704E-02  0.11057454E-10
    2    1    0.23705379E-10 -0.18284702E-12
    3    1    0.71300364E-03  0.14566535E-10
    4    1    0.49413951E-03  0.16209173E-10
    5    1    0.37935621E-04  0.74343864E-11
    6    1    0.44386374E-10 -0.50908240E-11
    7    1   -0.16449447E-07 -0.28110036E-11
    8    1    0.71910067E-03 -0.97483618E-11
    1    2    0.30838060E-10 -0.10553131E-11
    2    2    0.51489255E-04  0.11723001E-11
    3    2   -0.25572065E-11 -0.15417330E-10
    4    2    0.51245145E-10  0.10232563E-11
    5    2   -0.90069638E-11 -0.64247748E-11
    6    2    0.14497443E-03  0.32231856E-11
    7    2   -0.10169931E-10 -0.38428177E-11
    8    2    0.32411772E-10  0.93748598E-11
    1    3    0.24682071E-02 -0.89795612E-11
    2    3   -0.35020869E-10  0.46249684E-11
    3    3   -0.15916312E-02  0.49047225E-11
    4    3   -0.78611072E-03 -0.20069116E-11
    5    3    0.16552693E-07 -0.37576786E-11
    6    3    0.11487581E-10  0.52276579E-11
    7    3    0.21363827E-04  0.39511172E-11
    8    3    0.67395632E-09  0.69018853E-11
    1    4   -0.17171775E-02  0.21972424E-11
    2    4    0.64968983E-10 -0.11652782E-11
    3    4    0.22318304E-02  0.31831885E-11
    4    4    0.45406061E-02  0.89493621E-11
    5    4   -0.71910071E-03  0.67945441E-11
    6    4    0.14536043E-09 -0.11107664E-10
    7    4    0.88962214E-09  0.91916058E-12
    8    4    0.29759991E-02  0.10107748E-10
    1    5   -0.26050042E-02 -0.93334507E-11
    2    5    0.19041070E-09  0.35474535E-11
    3    5    0.24205909E-02 -0.16674314E-10
    4    5    0.37360537E-02 -0.14780580E-10
    5    5   -0.22365698E-02 -0.19946059E-10
    6    5   -0.14697694E-09  0.22685728E-11
    7    5   -0.24682072E-02  0.50208477E-11
    8    5    0.17171772E-02  0.15770801E-10
    1    6   -0.73193293E-09  0.44220417E-11
    2    6   -0.92161355E-03 -0.44076826E-11
    3    6   -0.10696784E-09 -0.41842942E-10
    4    6    0.55884508E-09 -0.68443302E-11
    5    6   -0.33832492E-09 -0.11818735E-11
    6    6    0.51489254E-04 -0.11015633E-11
    7    6   -0.43759885E-09 -0.15695723E-10
    8    6    0.62745642E-09  0.17655993E-10
    1    7   -0.24205897E-02 -0.84410690E-12
    2    7    0.15254398E-10  0.22586063E-10
    3    7   -0.86374419E-02 -0.13325410E-10
    4    7   -0.49532586E-02 -0.93702494E-11
    5    7   -0.71300378E-03 -0.74499139E-11
    6    7    0.98815821E-10  0.19473404E-10
    7    7   -0.15916319E-02 -0.41387137E-11
    8    7    0.22318309E-02 -0.21931270E-10
    1    8   -0.37360524E-02 -0.94264874E-12
    2    8    0.18715970E-09 -0.14006324E-12
    3    8   -0.49532592E-02 -0.11297852E-10
    4    8    0.42755732E-03 -0.12455731E-10
    5    8   -0.49413928E-03 -0.42314208E-11
    6    8    0.30042099E-09 -0.13519971E-11
    7    8   -0.78611045E-03  0.11307427E-10
    8    8    0.45406059E-02  0.12563769E-11

   -5   -1    0
    1    1    0.28720063E-03  0.38084952E-11
    2    1    0.42416100E-11  0.45454125E-11
    3    1    0.16463050E-07  0.86988359E-13
    4    1   -0.10099539E-02 -0.10351942E-10
    5    1    0.75536124E-03  0.82451962E-11
    6    1   -0.56081702E-10  0.10054760E-11
    7    1   -0.58805269E-03  0.65318671E-11
    8    1   -0.18679431E-02  0.59744154E-11
    1    2    0.23090338E-10  0.89905140E-11
    2    2    0.14810968E-03  0.99871153E-12
    3    2    0.75796176E-11  0.17445351E-10
    4    2    0.31016690E-10 -0.21000719E-11
    5    2    0.17144585E-10  0.83628223E-11
    6    2    0.54215321E-04 -0.20600882E-11
    7    2    0.23320488E-10  0.11300918E-10
    8    2    0.27642813E-10 -0.81372613E-11
    1    3    0.13930617E-07  0.71263793E-11
    2    3   -0.22410775E-10  0.10864740E-10
    3    3    0.90836231E-03 -0.21072420E-10
    4    3    0.38382757E-07  0.85088493E-11
    5    3    0.58805287E-03 -0.32891851E-10
    6    3    0.31771922E-10 -0.10408687E-10
    7    3   -0.39935974E-03 -0.21833549E-10
    8    3   -0.86017863E-03 -0.92510791E-11
    1    4    0.15254834E-02  0.11496637E-11
    2    4   -0.21535338E-10 -0.19321110E-11
    3    4   -0.46414402E-07 -0.90644671E-11
    4    4   -0.27932637E-03  0.18608726E-12
    5    4    0.18679434E-02 -0.37318898E-11
    6    4   -0.88643824E-11  0.49256671E-11
    7    4   -0.86017854E-03 -0.12992606E-10
    8    4   -0.31387849E-02  0.66787825E-11
    1    5    0.32867942E-02  0.14586082E-10
    2    5   -0.72798778E-10  0.25640505E-11
    3    5   -0.77749484E-03  0.89208545E-12
    4    5   -0.51027964E-03  0.69265566E-11
    5    5    0.28720063E-03 -0.63052341E-11
    6    5   -0.58552350E-10 -0.23320086E-11
    7    5   -0.14188517E-07 -0.17849166E-10
    8    5   -0.15254833E-02 -0.24348648E-11
    1    6    0.45652441E-09  0.66475615E-11
    2    6    0.12437289E-03  0.19327734E-11
    3    6   -0.16184865E-09  0.28708256E-10
    4    6   -0.34867563E-10  0.72361654E-11
    5    6    0.12315384E-09  0.45587021E-11
    6    6    0.14810968E-03 -0.87477768E-12
    7    6    0.14018360E-10 -0.33668698E-11
    8    6   -0.20870992E-09 -0.14820880E-10
    1    7    0.77749498E-03  0.14861293E-10
    2    7   -0.33567128E-10  0.38522588E-12
    3    7    0.27491124E-02 -0.50978666E-12
    4    7   -0.27280815E-03  0.13161000E-12
    5    7   -0.16577769E-07 -0.68823640E-11
    6    7   -0.21098530E-10 -0.89593733E-11
    7    7    0.90836230E-03 -0.62730220E-11
    8    7   -0.46789828E-07  0.16735051E-11
    1    8    0.51027964E-03  0.10660722E-10
    2    8   -0.24291270E-11 -0.37574013E-11
    3    8   -0.27280810E-03 -0.26749714E-11
    4    8   -0.18183148E-03  0.25112787E-10
    5    8    0.10099539E-02  0.17634914E-10
    6    8    0.42631488E-10  0.38932403E-11
    7    8    0.38386220E-07 -0.14981358E-10
    8    8   -0.27932636E-03  0.21440297E-10

   -4   -5    0
    1    1   -0.34491006E-04  0.33917169E-11
    2    1   -0.24142528E-10 -0.25049891E-11
    3    1    0.12540899E-02  0.26294487E-11
    4    1   -0.10320108E-03  0.11181585E-10
    5    1   -0.92154272E-03 -0.62710948E-12
    6    1   -0.51695521E-10 -0.79631485E-11
    7    1    0.37324865E-02  0.32155251E-11
    8    1    0.18559812E-02 -0.33101785E-11
    1    2    0.42707410E-10 -0.57047183E-11
    2    2    0.14810926E-03  0.89314281E-12
    3    2   -0.35680758E-10 -0.10814577E-10
    4    2    0.27357901E-11 -0.12853276E-11
    5    2    0.11186724E-09 -0.19713304E-11
    6    2   -0.72112413E-03  0.12201897E-12
    7    2   -0.48074777E-10 -0.73765247E-11
    8    2    0.85679648E-10  0.21935629E-11
    1    3   -0.33574345E-03 -0.10940913E-10
    2    3    0.42766183E-10 -0.35501720E-11
    3    3    0.44584519E-03  0.82132597E-11
    4    3    0.65939739E-03 -0.48037069E-11
    5    3   -0.37324865E-02 -0.40260763E-11
    6    3   -0.32439291E-09  0.15911101E-10
    7    3   -0.44174252E-03 -0.39694081E-11
    8    3    0.18911521E-02 -0.10329931E-12
    1    4    0.13996828E-02  0.92643202E-11
    2    4   -0.24611837E-10  0.30408957E-11
    3    4   -0.58602155E-03  0.16038655E-11
    4    4    0.50487541E-03  0.82939909E-11
    5    4   -0.18559818E-02  0.42678361E-12
    6    4    0.67100680E-10 -0.52474672E-12
    7    4    0.18911518E-02  0.57315194E-11
    8    4    0.31545801E-02 -0.11495763E-10
    1    5   -0.17302878E-02  0.32186753E-11
    2    5    0.22642826E-10 -0.17279946E-11
    3    5    0.17368477E-02  0.33499818E-11
    4    5   -0.69727741E-04  0.43167761E-11
    5    5   -0.34490801E-04 -0.95419978E-11
    6    5   -0.97293533E-10 -0.10068572E-10
    7    5    0.33574332E-03 -0.57479368E-12
    8    5   -0.13996826E-02  0.15200601E-11
    1    6   -0.19539771E-09  0.29273868E-11
    2    6    0.14497389E-03  0.31425581E-12
    3    6    0.20085145E-09 -0.13265006E-10
    4    6   -0.48672861E-11 -0.34468741E-11
    5    6   -0.40344353E-10 -0.49882305E-11
    6    6    0.14810927E-03 -0.98053151E-12
    7    6    0.48876079E-10 -0.10775437E-11
    8    6   -0.10964707E-09  0.99791351E-11
    1    7   -0.17368485E-02 -0.94960116E-11
    2    7    0.33439574E-10  0.55818420E-11
    3    7    0.16807368E-02 -0.13305329E-12
    4    7    0.15980941E-03 -0.70097331E-11
    5    7   -0.12540900E-02  0.85430742E-11
    6    7   -0.19521682E-09  0.10826399E-10
    7    7    0.44584499E-03 -0.13871715E-10
    8    7   -0.58602181E-03  0.12758589E-10
    1    8    0.69727733E-04  0.90758859E-11
    2    8   -0.89305857E-12  0.58049966E-11
    3    8    0.15980924E-03  0.64239170E-11
    4    8   -0.21724976E-03 -0.77619022E-11
    5    8    0.10320103E-03  0.59174714E-12
    6    8    0.43638343E-10  0.35776671E-11
    7    8    0.65939737E-03  0.38545764E-11
    8    8    0.50487542E-03 -0.16420888E-11

   -4   -4    0
    1    1    0.50301983E-03 -0.93795353E-11
    2    1   -0.31984619E-12 -0.13141301E-11
    3    1    0.30699052E-02  0.12262119E-10
    4    1    0.11691236E-02  0.79647088E-11
    5    1    0.17345446E-02  0.57723548E-11
    6    1    0.94106615E-10 -0.38979809E-11
    7    1    0.22259647E-02 -0.11867954E-10
    8    1   -0.10858536E-02  0.14679247E-10
    1    2    0.38143521E-10  0.54846377E-11
    2    2    0.51849306E-03  0.17861424E-11
    3    2   -0.13366342E-10  0.12834372E-10
    4    2    0.51915802E-11  0.64167396E-11
    5    2    0.19678084E-10  0.35471772E-12
    6    2    0.54257209E-04 -0.10342144E-11
    7    2    0.14462079E-11  0.37347272E-11
    8    2    0.22763566E-10 -0.59537393E-12
    1    3    0.35281612E-02  0.56985692E-11
    2    3   -0.21521137E-10  0.97049506E-11
    3    3   -0.16552910E-02 -0.10501293E-10
    4    3    0.24066426E-02 -0.66931877E-11
    5    3   -0.22259639E-02  0.18074567E-10
    6    3   -0.21594143E-09 -0.71706062E-11
    7    3   -0.20567315E-02  0.10004650E-10
    8    3    0.97501221E-03 -0.36382841E-11
    1    4    0.17559907E-02 -0.26257468E-11
    2    4   -0.26518405E-10 -0.42799198E-11
    3    4    0.22488829E-02  0.28543552E-12
    4    4    0.20185050E-02 -0.32188176E-11
    5    4    0.10858534E-02  0.27123165E-11
    6    4    0.76801329E-10 -0.39688416E-11
    7    4    0.97501231E-03 -0.27140790E-11
    8    4   -0.67681859E-03  0.11028942E-10
    1    5    0.52713947E-03  0.35057773E-11
    2    5    0.48724730E-10  0.61636474E-11
    3    5   -0.12647214E-02  0.76594495E-11
    4    5    0.23799561E-03  0.32930603E-12
    5    5    0.50302144E-03  0.11434780E-10
    6    5   -0.14072450E-09  0.56572067E-11
    7    5   -0.35281608E-02 -0.43771965E-11
    8    5   -0.17559911E-02 -0.29073896E-11
    1    6    0.60030168E-10  0.90716734E-11
    2    6    0.54257206E-04 -0.45059789E-12
    3    6   -0.16052991E-09  0.26652605E-10
    4    6    0.45148896E-10  0.15474020E-10
    5    6   -0.14391249E-09  0.23048804E-10
    6    6    0.51849306E-03 -0.18502404E-11
    7    6   -0.23957805E-09 -0.99255930E-11
    8    6   -0.68305656E-10 -0.15495675E-10
    1    7    0.12647224E-02  0.32893115E-11
    2    7   -0.41077358E-11 -0.67915878E-11
    3    7   -0.41813451E-02  0.91878311E-11
    4    7    0.14280021E-03  0.15260945E-10
    5    7   -0.30699047E-02 -0.19593910E-11
    6    7   -0.23505264E-09  0.24737421E-11
    7    7   -0.16552924E-02  0.92489974E-11
    8    7    0.22488827E-02  0.67727464E-12
    1    8   -0.23799574E-03  0.15479742E-10
    2    8    0.27958392E-11 -0.19195895E-11
    3    8    0.14280039E-03 -0.10931880E-12
    4    8    0.45489875E-04 -0.20590890E-11
    5    8   -0.11691241E-02  0.55695552E-11
    6    8   -0.54774496E-10 -0.12861075E-11
    7    8    0.24066425E-02  0.21309099E-10
    8    8    0.20185048E-02 -0.15080333E-11

   -4   -3    0
    1    1   -0.63262902E-03 -0.85868396E-11
    2    1    0.45867704E-10  0.16430992E-10
    3    1   -0.12894947E-02  0.25162437E-11
    4    1    0.22956455E-02  0.73411624E-11
    5    1   -0.25201999E-02 -0.39148962E-11
    6    1   -0.41603291E-09  0.14609091E-10
    7    1   -0.72723398E-02 -0.19950708E-10
    8    1   -0.15676132E-02 -0.21173965E-11
    1    2   -0.13090785E-10 -0.54892567E-11
    2    2   -0.61519884E-03  0.26396055E-11
    3    2    0.10626583E-11 -0.11321211E-10
    4    2   -0.48949757E-10  0.93064292E-11
    5    2    0.14255542E-09  0.77184906E-12
    6    2   -0.44515678E-03  0.40798476E-11
    7    2    0.78635520E-10 -0.84568038E-11
    8    2    0.70892613E-11  0.26398425E-11
    1    3    0.17984137E-02 -0.71739038E-11
    2    3   -0.33842712E-10  0.18221828E-10
    3    3    0.71905859E-03  0.14735307E-10
    4    3   -0.11325417E-02 -0.18396953E-10
    5    3    0.72723383E-02 -0.28111248E-10
    6    3    0.89927219E-09  0.26367593E-10
    7    3    0.36383473E-02 -0.18004834E-11
    8    3   -0.20243361E-02 -0.81891091E-12
    1    4    0.31131849E-03  0.12225915E-11
    2    4   -0.22747032E-10  0.14222677E-10
    3    4   -0.11659866E-02 -0.54631258E-11
    4    4   -0.57331515E-03 -0.14084203E-10
    5    4    0.15676140E-02  0.57123750E-12
    6    4    0.57272555E-10  0.80761638E-11
    7    4   -0.20243359E-02  0.16578683E-11
    8    4   -0.11732948E-02  0.72005318E-11
    1    5    0.19856850E-03 -0.37078257E-11
    2    5   -0.99309420E-11 -0.60092188E-12
    3    5   -0.38188517E-02 -0.17877343E-10
    4    5   -0.20836440E-02 -0.44802356E-11
    5    5   -0.63262891E-03 -0.61841018E-11
    6    5    0.11887196E-10  0.12134072E-10
    7    5   -0.17984140E-02  0.13022540E-10
    8    5   -0.31131822E-03  0.31205871E-11
    1    6    0.22426164E-09 -0.28681282E-10
    2    6    0.25909929E-03  0.30624669E-11
    3    6   -0.22780663E-09 -0.13248193E-10
    4    6    0.17973277E-11 -0.53182941E-11
    5    6   -0.19702310E-09 -0.25632486E-10
    6    6   -0.61519883E-03 -0.27154251E-11
    7    6   -0.32762348E-09 -0.30093020E-11
    8    6   -0.36272394E-10  0.17053253E-10
    1    7    0.38188517E-02 -0.98017506E-11
    2    7   -0.20658047E-10 -0.18498183E-10
    3    7    0.25958459E-03  0.13105211E-10
    4    7    0.33034100E-02 -0.37343479E-11
    5    7    0.12894943E-02 -0.14547831E-10
    6    7    0.75993664E-10  0.39684309E-11
    7    7    0.71905840E-03 -0.11018566E-10
    8    7   -0.11659867E-02 -0.14842477E-10
    1    8    0.20836430E-02 -0.20523264E-10
    2    8   -0.11585213E-09 -0.28609308E-10
    3    8    0.33034103E-02 -0.26558597E-10
    4    8    0.31126089E-02 -0.32438774E-10
    5    8   -0.22956451E-02 -0.13585466E-10
    6    8   -0.42939219E-09 -0.21771296E-10
    7    8   -0.11325423E-02  0.19126803E-10
    8    8   -0.57331506E-03  0.28851591E-10

   -4   -2    0
    1    1    0.31216685E-02 -0.13079815E-10
    2    1    0.76443866E-10  0.71142016E-11
    3    1    0.61565030E-02  0.12627476E-10
    4    1    0.82440531E-02  0.21991228E-11
    5    1    0.56118660E-03 -0.82728616E-11
    6    1    0.32564901E-09 -0.11610558E-10
    7    1   -0.12325204E-02  0.22062165E-10
    8    1    0.22278804E-02 -0.16767782E-10
    1    2   -0.88393661E-10 -0.14133783E-11
    2    2    0.20516170E-02  0.76307190E-12
    3    2   -0.18783845E-09  0.23741690E-10
    4    2   -0.13888897E-09 -0.74659292E-11
    5    2    0.23450838E-10  0.15489627E-11
    6    2   -0.44515685E-03  0.10689782E-11
    7    2    0.19507256E-10  0.10354901E-10
    8    2    0.73027309E-10 -0.23896754E-10
    1    3   -0.71115236E-02  0.16000483E-10
    2    3    0.17398421E-09  0.12444211E-10
    3    3    0.59888861E-02 -0.21852379E-10
    4    3    0.50693657E-02  0.80862286E-11
    5    3    0.12325218E-02  0.21320312E-10
    6    3    0.14561761E-09 -0.60076323E-11
    7    3   -0.53876078E-02 -0.11847759E-10
    8    3   -0.38103050E-04 -0.24378645E-10
    1    4   -0.18010974E-02  0.97289052E-11
    2    4    0.61337108E-10  0.13872187E-10
    3    4   -0.65905531E-02 -0.11211528E-10
    4    4    0.37345011E-02 -0.11407979E-10
    5    4   -0.22278802E-02 -0.32772118E-11
    6    4    0.51838076E-09  0.61752266E-11
    7    4   -0.38103379E-04  0.28472025E-11
    8    4    0.94652715E-02 -0.31342998E-10
    1    5   -0.11876542E-02  0.52647608E-11
    2    5    0.12099873E-09 -0.15543551E-10
    3    5    0.92279568E-04  0.17491611E-11
    4    5   -0.40290384E-02  0.20691115E-10
    5    5    0.31216685E-02  0.74729320E-11
    6    5    0.22787788E-09 -0.16576842E-10
    7    5    0.71115229E-02 -0.32395892E-10
    8    5    0.18010986E-02 -0.12467770E-10
    1    6    0.17946568E-09  0.30076219E-10
    2    6   -0.96398155E-03 -0.21567331E-11
    3    6   -0.13219132E-08  0.30998528E-10
    4    6   -0.12839874E-08  0.47164556E-11
    5    6   -0.56417334E-09  0.20373411E-10
    6    6    0.20516170E-02 -0.80131561E-12
    7    6    0.13954362E-08 -0.16450988E-10
    8    6    0.40375252E-09 -0.32272895E-10
    1    7   -0.92278522E-04 -0.65036514E-11
    2    7   -0.84697785E-10 -0.14762939E-10
    3    7   -0.37399604E-02 -0.72740286E-11
    4    7   -0.14788724E-01  0.55479926E-12
    5    7   -0.61565041E-02  0.30967603E-11
    6    7   -0.12920346E-08 -0.22665191E-10
    7    7    0.59888862E-02  0.17346640E-10
    8    7   -0.65905525E-02  0.24283455E-10
    1    8    0.40290420E-02  0.30000766E-10
    2    8    0.51621980E-10  0.10900055E-10
    3    8   -0.14788723E-01 -0.55716473E-11
    4    8   -0.85713747E-02  0.39541564E-10
    5    8   -0.82440543E-02  0.16674342E-10
    6    8   -0.91282481E-09  0.15661143E-10
    7    8    0.50693636E-02 -0.19301513E-10
    8    8    0.37345012E-02  0.22933776E-10

   -4   -1    0
    1    1    0.28112261E-03  0.13744464E-10
    2    1    0.75389880E-11 -0.81958206E-12
    3    1    0.14945558E-02 -0.12964052E-10
    4    1    0.59891003E-04 -0.22315379E-11
    5    1    0.75569563E-03  0.66175537E-11
    6    1   -0.66262810E-10 -0.30617221E-11
    7    1    0.58806727E-03 -0.60694939E-11
    8    1   -0.18679786E-02  0.96680858E-11
    1    2   -0.47757132E-11 -0.39549360E-11
    2    2   -0.61519902E-03  0.26268163E-11
    3    2   -0.55799754E-10 -0.18878956E-10
    4    2    0.22597369E-10  0.53292335E-11
    5    2    0.15659723E-10  0.34922469E-13
    6    2    0.54290525E-04 -0.34879669E-11
    7    2   -0.22549558E-10 -0.91832788E-11
    8    2    0.40629530E-10  0.13621779E-10
    1    3   -0.10264767E-02 -0.18638826E-10
    2    3   -0.79873854E-11 -0.11174395E-10
    3    3    0.31248994E-03  0.26866538E-10
    4    3   -0.11941582E-02  0.65217753E-12
    5    3   -0.58806708E-03  0.88848512E-11
    6    3   -0.43955655E-10  0.10393725E-10
    7    3   -0.39920731E-03  0.22294222E-10
    8    3    0.86023207E-03  0.12361223E-10
    1    4    0.36207336E-02  0.13473295E-10
    2    4   -0.55280534E-10  0.83082327E-12
    3    4   -0.15402380E-03  0.14777448E-10
    4    4   -0.10805274E-02  0.15332615E-10
    5    4    0.18679783E-02  0.82416574E-11
    6    4   -0.50074947E-10 -0.37666619E-11
    7    4    0.86023221E-03 -0.79722479E-11
    8    4   -0.31388290E-02  0.34136444E-11
    1    5   -0.41605605E-02  0.10255963E-11
    2    5    0.16923642E-09 -0.26561201E-11
    3    5   -0.26058848E-02  0.41546475E-10
    4    5   -0.79240931E-02 -0.33399117E-11
    5    5    0.28112261E-03 -0.88417676E-11
    6    5   -0.22952584E-09  0.13620670E-10
    7    5    0.10264766E-02  0.16103018E-10
    8    5   -0.36207337E-02  0.18217213E-10
    1    6    0.91152018E-10 -0.18308892E-10
    2    6   -0.96398594E-03 -0.11246490E-11
    3    6   -0.15469631E-08 -0.23703170E-10
    4    6   -0.15742874E-08 -0.10443113E-10
    5    6    0.85614416E-10 -0.20951490E-10
    6    6   -0.61519901E-03 -0.26654547E-11
    7    6    0.22306064E-10  0.13157128E-10
    8    6   -0.43944699E-09  0.35144692E-10
    1    7    0.26058868E-02 -0.11822106E-11
    2    7   -0.11724342E-09 -0.87650043E-11
    3    7   -0.11261446E-01  0.18604049E-10
    4    7   -0.11421751E-01  0.28946019E-10
    5    7   -0.14945560E-02 -0.37517472E-12
    6    7   -0.22558293E-09 -0.21347042E-11
    7    7    0.31248987E-03 -0.13450923E-10
    8    7   -0.15402469E-03 -0.47286897E-11
    1    8    0.79240958E-02 -0.22082837E-10
    2    8   -0.51455469E-10  0.11376042E-10
    3    8   -0.11421749E-01  0.18937629E-11
    4    8   -0.53583866E-02 -0.34028469E-10
    5    8   -0.59890677E-04 -0.34534604E-10
    6    8   -0.19725725E-10 -0.27567315E-10
    7    8   -0.11941582E-02  0.16892160E-10
    8    8   -0.10805273E-02 -0.32205899E-10

   -4    0    0
    1    1   -0.70766551E-03  0.35152974E-11
    2    1    0.40327554E-12  0.67815018E-11
    3    1   -0.25531449E-03  0.13515243E-10
    4    1   -0.16115750E-02 -0.96105849E-12
    5    1   -0.56506391E-03  0.66021910E-11
    6    1   -0.24195128E-09  0.10460015E-10
    7    1    0.10603007E-06  0.20999071E-11
    8    1   -0.10516731E-02 -0.88045283E-11
    1    2   -0.25866887E-11  0.30902504E-11
    2    2    0.51852872E-03 -0.21901578E-12
    3    2    0.41455105E-10  0.17928562E-10
    4    2   -0.31676632E-10 -0.56642866E-11
    5    2    0.12029795E-09 -0.11041317E-11
    6    2   -0.72113475E-03  0.91517072E-13
    7    2    0.19971097E-10  0.63034410E-11
    8    2    0.55688272E-10 -0.54946664E-11
    1    3    0.25554571E-03  0.19937737E-10
    2    3   -0.25836713E-10  0.13275388E-10
    3    3    0.50419940E-02 -0.32427814E-10
    4    3   -0.38589091E-03 -0.61075095E-11
    5    3   -0.10765108E-06 -0.10009223E-10
    6    3   -0.11759871E-10  0.64166146E-12
    7    3    0.60918553E-02 -0.18964552E-10
    8    3    0.20866867E-06 -0.46197837E-11
    1    4   -0.16115477E-02 -0.13493713E-10
    2    4   -0.37217596E-11 -0.10020501E-10
    3    4    0.38589204E-03  0.98849436E-11
    4    4   -0.34681184E-02  0.75425777E-11
    5    4    0.10516731E-02 -0.56095718E-11
    6    4   -0.96869435E-10  0.15781401E-11
    7    4    0.20909432E-06 -0.22340393E-11
    8    4   -0.34492990E-02  0.70827042E-11
    1    5   -0.31339576E-03  0.49221460E-11
    2    5   -0.89400401E-10  0.66862906E-11
    3    5    0.51067606E-03 -0.42395693E-10
    4    5    0.14612966E-02  0.70368919E-11
    5    5   -0.70766550E-03 -0.91934498E-11
    6    5   -0.19810770E-10 -0.30378215E-11
    7    5   -0.25554701E-03 -0.14137818E-10
    8    5    0.16115477E-02  0.24393092E-11
    1    6   -0.13388226E-09  0.13972574E-10
    2    6    0.25910567E-03  0.61971123E-11
    3    6    0.22654177E-09 -0.26130697E-10
    4    6   -0.10234433E-09  0.10595720E-10
    5    6   -0.29043257E-10  0.41959444E-11
    6    6    0.51852872E-03  0.14944990E-12
    7    6   -0.11651446E-10 -0.11470210E-10
    8    6   -0.12627959E-09  0.56622123E-11
    1    7   -0.51067791E-03 -0.10419627E-10
    2    7   -0.14151080E-10  0.18111806E-10
    3    7    0.77224316E-02 -0.19638527E-10
    4    7    0.15576427E-02 -0.42138369E-10
    5    7    0.25531324E-03 -0.12626672E-10
    6    7    0.18051252E-10 -0.86369139E-11
    7    7    0.50419940E-02  0.59840579E-11
    8    7    0.38589204E-03  0.51613293E-11
    1    8   -0.14612968E-02  0.26136940E-11
    2    8    0.24857848E-10 -0.19990160E-10
    3    8    0.15576423E-02 -0.22383047E-10
    4    8   -0.32127152E-02  0.12506690E-10
    5    8    0.16115751E-02  0.14016243E-10
    6    8   -0.11308891E-09  0.59362562E-11
    7    8   -0.38589088E-03 -0.18652122E-10
    8    8   -0.34681184E-02  0.28137043E-10

   -4    1    0
    1    1    0.28720063E-03 -0.38083772E-11
    2    1    0.23090339E-10 -0.89905163E-11
    3    1    0.37395753E-07 -0.71264557E-11
    4    1    0.15254834E-02 -0.11496221E-11
    5    1    0.32867912E-02 -0.14585083E-10
    6    1    0.45652359E-09 -0.66475615E-11
    7    1    0.77749448E-03 -0.14861128E-10
    8    1    0.51027674E-03 -0.10660597E-10
    1    2    0.42416228E-11 -0.45454111E-11
    2    2    0.14810968E-03 -0.99897868E-12
    3    2   -0.22411215E-10 -0.10864758E-10
    4    2   -0.21535323E-10  0.19321186E-11
    5    2   -0.72797112E-10 -0.25640567E-11
    6    2    0.12436125E-03 -0.19319130E-11
    7    2   -0.33567112E-10 -0.38523669E-12
    8    2   -0.24278311E-11  0.37574165E-11
    1    3    0.15549427E-07 -0.86834294E-13
    2    3    0.75794521E-11 -0.17445346E-10
    3    3    0.90836231E-03  0.21073044E-10
    4    3   -0.43242984E-07  0.90643985E-11
    5    3   -0.77749434E-03 -0.89225502E-12
    6    3   -0.16184842E-09 -0.28708264E-10
    7    3    0.27491162E-02  0.50989074E-12
    8    3   -0.27280653E-03  0.26742220E-11
    1    4   -0.10099539E-02  0.10352795E-10
    2    4    0.31016682E-10  0.21000670E-11
    3    4    0.24537699E-07 -0.85087838E-11
    4    4   -0.27932637E-03 -0.18595542E-12
    5    4   -0.51027674E-03 -0.69267300E-11
    6    4   -0.34865161E-10 -0.72361722E-11
    7    4   -0.27280659E-03 -0.13235940E-12
    8    4   -0.18181302E-03 -0.25114369E-10
    1    5    0.75571895E-03 -0.82377230E-11
    2    5    0.17130196E-10 -0.83628159E-11
    3    5    0.58805611E-03  0.32892253E-10
    4    5    0.18680155E-02  0.37332359E-11
    5    5    0.28720063E-03  0.63053313E-11
    6    5    0.12315385E-09 -0.45587083E-11
    7    5   -0.15664146E-07  0.68822189E-11
    8    5    0.10099539E-02 -0.17635740E-10
    1    6   -0.56039003E-10 -0.10054898E-11
    2    6    0.54291169E-04  0.20616148E-11
    3    6    0.31772270E-10  0.10408675E-10
    4    6   -0.88580446E-11 -0.49256762E-11
    5    6   -0.58552346E-10  0.23320048E-11
    6    6    0.14810968E-03  0.87450533E-12
    7    6   -0.21097910E-10  0.89593738E-11
    8    6    0.42631491E-10 -0.38932331E-11
    1    7   -0.58805593E-03 -0.65322886E-11
    2    7    0.23320537E-10 -0.11300909E-10
    3    7   -0.39920617E-03  0.21835991E-10
    4    7   -0.86018004E-03  0.12993196E-10
    5    7   -0.37653654E-07  0.17849233E-10
    6    7    0.14014009E-10  0.33668804E-11
    7    7    0.90836229E-03  0.62738148E-11
    8    7    0.24541162E-07  0.14981448E-10
    1    8   -0.18680152E-02 -0.59758309E-11
    2    8    0.27636888E-10  0.81372537E-11
    3    8   -0.86018014E-03  0.92515865E-11
    4    8   -0.31388159E-02 -0.66783801E-11
    5    8   -0.15254833E-02  0.24347191E-11
    6    8   -0.20870992E-09  0.14820890E-10
    7    8   -0.43618410E-07 -0.16735910E-11
    8    8   -0.27932636E-03 -0.21440280E-10

   -3   -6    0
    1    1   -0.13661522E-02  0.52332959E-11
    2    1    0.65377221E-10  0.18941884E-11
    3    1    0.44634296E-07 -0.43088172E-11
    4    1    0.19645525E-02  0.27509505E-11
    5    1   -0.11968858E-02  0.14669932E-11
    6    1   -0.11973383E-09 -0.25646916E-11
    7    1   -0.25991374E-02 -0.34481480E-11
    8    1    0.33550397E-04  0.27057453E-11
    1    2   -0.15067967E-10  0.55844650E-11
    2    2   -0.22379465E-03 -0.16022916E-11
    3    2    0.37780045E-11 -0.99160099E-11
    4    2   -0.19597965E-10  0.12643275E-11
    5    2   -0.24905507E-10  0.11143814E-11
    6    2    0.14518960E-03  0.34495229E-13
    7    2    0.83726922E-11  0.46854774E-11
    8    2   -0.33300716E-10  0.94941017E-11
    1    3    0.48400665E-07 -0.17228283E-10
    2    3    0.14987562E-10 -0.14160671E-11
    3    3    0.10158656E-02  0.19825114E-10
    4    3   -0.50000281E-07 -0.90033883E-12
    5    3    0.25991367E-02  0.36874826E-11
    6    3    0.35527190E-09 -0.20776486E-11
    7    3    0.22810976E-02  0.21375818E-11
    8    3   -0.62018810E-03  0.19056770E-11
    1    4    0.21349735E-02  0.14630160E-10
    2    4   -0.76145655E-10 -0.17802129E-11
    3    4   -0.50074810E-07  0.13806644E-10
    4    4   -0.90177923E-03  0.51139114E-11
    5    4   -0.33550128E-04 -0.27570168E-11
    6    4   -0.13938601E-09 -0.37079288E-11
    7    4   -0.62018798E-03 -0.31879360E-12
    8    4   -0.84656686E-03 -0.37324380E-11
    1    5    0.13550083E-02  0.66135847E-11
    2    5   -0.26490624E-10  0.18827520E-11
    3    5    0.28978037E-02  0.20723024E-11
    4    5    0.35366750E-03  0.85711299E-11
    5    5   -0.13661522E-02 -0.98551761E-11
    6    5   -0.40143169E-09 -0.13306374E-11
    7    5   -0.49107516E-07 -0.51374859E-11
    8    5   -0.21349735E-02  0.40315962E-11
    1    6    0.15443983E-09 -0.25876085E-12
    2    6    0.11322644E-03 -0.21349448E-11
    3    6    0.31142741E-09 -0.19617832E-10
    4    6   -0.24953393E-09  0.12714738E-11
    5    6   -0.29884390E-09 -0.56309907E-11
    6    6   -0.22379465E-03  0.15938797E-11
    7    6   -0.10039473E-10  0.30792864E-11
    8    6   -0.32081125E-09  0.10046938E-10
    1    7   -0.28978034E-02 -0.94211479E-11
    2    7    0.52810721E-10  0.10327848E-10
    3    7   -0.15761987E-03  0.48792290E-11
    4    7   -0.81563371E-03  0.54299065E-11
    5    7   -0.45212524E-07  0.49394031E-11
    6    7    0.16444537E-11  0.14218393E-10
    7    7    0.10158656E-02 -0.32381102E-11
    8    7   -0.50590939E-07 -0.10685121E-10
    1    8   -0.35366714E-03 -0.17752320E-10
    2    8   -0.75611589E-10  0.91225104E-12
    3    8   -0.81563365E-03 -0.39340753E-12
    4    8   -0.36951353E-02 -0.10429255E-10
    5    8   -0.19645525E-02  0.16519720E-11
    6    8   -0.37805623E-09  0.32277074E-12
    7    8   -0.50530526E-07  0.12556280E-11
    8    8   -0.90177922E-03 -0.12923528E-10

   -3   -5    0
    1    1    0.19474276E-02 -0.11732081E-10
    2    1   -0.16425372E-10 -0.44669777E-11
    3    1   -0.56036502E-02  0.90338353E-11
    4    1   -0.91655030E-03 -0.13964111E-10
    5    1    0.13954988E-02 -0.96093966E-11
    6    1    0.32703983E-09  0.96757762E-12
    7    1   -0.38650158E-03  0.12055284E-10
    8    1    0.22170389E-02  0.17814049E-12
    1    2   -0.26941463E-10  0.21453581E-11
    2    2    0.51490751E-04 -0.22268628E-11
    3    2    0.11609345E-09 -0.71625895E-11
    4    2    0.31030709E-11  0.28172555E-11
    5    2   -0.64595278E-10 -0.20819168E-12
    6    2    0.12436759E-03  0.11432799E-11
    7    2    0.47237996E-10 -0.16490876E-10
    8    2   -0.54744530E-10  0.23236083E-11
    1    3   -0.21732396E-02  0.47453586E-11
    2    3    0.46743409E-10  0.11966607E-10
    3    3   -0.10162741E-02 -0.13250115E-10
    4    3    0.17384947E-04 -0.62149157E-11
    5    3    0.38650188E-03  0.12172718E-10
    6    3    0.27976149E-09  0.55314198E-11
    7    3   -0.33893977E-03  0.57771084E-11
    8    3    0.23002255E-02  0.11328924E-10
    1    4    0.55781361E-03 -0.16665905E-11
    2    4   -0.93109310E-11 -0.92784162E-11
    3    4    0.15052538E-02  0.51693890E-11
    4    4   -0.21876027E-03 -0.24822262E-11
    5    4   -0.22170394E-02  0.77360202E-11
    6    4   -0.25306802E-09 -0.87506450E-11
    7    4    0.23002249E-02  0.34603639E-11
    8    4   -0.62199385E-04  0.61014041E-11
    1    5    0.23867780E-02 -0.40664711E-11
    2    5   -0.98269467E-10 -0.31328755E-11
    3    5    0.44686480E-07 -0.44415582E-11
    4    5   -0.13593293E-02  0.15893217E-10
    5    5    0.19474258E-02  0.10387465E-10
    6    5    0.19674119E-09  0.19720440E-11
    7    5    0.21732403E-02 -0.98588971E-11
    8    5   -0.55781414E-03  0.14894405E-11
    1    6    0.44461936E-09  0.15078498E-11
    2    6    0.11322692E-03 -0.30642155E-12
    3    6    0.21446063E-10  0.16870552E-11
    4    6    0.14761416E-10  0.61724882E-11
    5    6    0.37156549E-09  0.21445772E-10
    6    6    0.51490755E-04  0.21461877E-11
    7    6    0.26520358E-09 -0.10722506E-10
    8    6   -0.12160996E-09 -0.11913392E-10
    1    7   -0.43002515E-07  0.69318457E-11
    2    7   -0.50350362E-11  0.33302153E-11
    3    7   -0.43140731E-02 -0.58273802E-11
    4    7   -0.21908709E-07 -0.46307680E-11
    5    7    0.56036509E-02 -0.12270948E-11
    6    7    0.89569866E-09 -0.49435353E-11
    7    7   -0.10162723E-02  0.13029447E-10
    8    7    0.15052537E-02 -0.18114776E-11
    1    8    0.13593293E-02  0.91146812E-11
    2    8   -0.13934538E-10 -0.47166981E-11
    3    8   -0.21437054E-07 -0.48606258E-11
    4    8    0.21690449E-02  0.16512902E-11
    5    8    0.91655000E-03 -0.85333511E-11
    6    8    0.13644012E-09 -0.11324054E-10
    7    8    0.17385263E-04 -0.21392367E-11
    8    8   -0.21876034E-03  0.10070993E-10

   -3   -4    0
    1    1   -0.18595109E-02  0.77658366E-11
    2    1   -0.20061440E-10  0.19541469E-10
    3    1    0.45800992E-03 -0.47171363E-10
    4    1    0.15812228E-03 -0.31449093E-10
    5    1   -0.18130468E-02 -0.68915706E-11
    6    1   -0.31749323E-10  0.25771388E-11
    7    1    0.39088773E-02 -0.13118538E-11
    8    1    0.31306977E-02 -0.17934751E-11
    1    2    0.53329310E-10 -0.63072915E-12
    2    2   -0.61519884E-03  0.14934651E-11
    3    2   -0.40962949E-10  0.83255922E-11
    4    2   -0.18602758E-10 -0.40380580E-11
    5    2   -0.85453690E-10  0.83133151E-11
    6    2    0.25909929E-03 -0.15299567E-11
    7    2   -0.57252010E-11  0.16864852E-10
    8    2   -0.25497217E-10 -0.48634861E-11
    1    3   -0.31522629E-03  0.77554746E-11
    2    3    0.73160641E-11 -0.63626355E-11
    3    3    0.13658319E-02 -0.70857972E-11
    4    3    0.15473052E-02 -0.25231197E-11
    5    3   -0.39088774E-02 -0.22823069E-10
    6    3   -0.39970771E-09 -0.36172953E-11
    7    3   -0.14392714E-02 -0.10827436E-10
    8    3    0.20190096E-02  0.40189796E-11
    1    4    0.15696236E-02 -0.39024409E-11
    2    4    0.11613385E-10  0.16553643E-10
    3    4   -0.25273097E-02 -0.18619839E-10
    4    4    0.67934933E-05 -0.14377714E-10
    5    4   -0.31306984E-02  0.65583997E-11
    6    4   -0.19871987E-09  0.18605311E-10
    7    4    0.20190089E-02 -0.13607032E-11
    8    4    0.28501243E-02  0.30215691E-11
    1    5   -0.23392625E-02 -0.81078477E-11
    2    5    0.70305371E-10  0.96854391E-11
    3    5    0.57685418E-02  0.13914440E-10
    4    5    0.20310718E-02  0.85217944E-12
    5    5   -0.18595108E-02  0.18075312E-10
    6    5   -0.26703172E-09 -0.34381865E-11
    7    5    0.31522544E-03  0.10940937E-10
    8    5   -0.15696230E-02 -0.79300178E-11
    1    6   -0.50797068E-09 -0.24045192E-10
    2    6   -0.44515678E-03 -0.21779245E-11
    3    6    0.66421435E-09  0.12952517E-10
    4    6   -0.11189449E-09 -0.22062369E-10
    5    6   -0.28245715E-09 -0.35107851E-10
    6    6   -0.61519882E-03 -0.16168247E-11
    7    6    0.25467416E-09  0.37741230E-10
    8    6   -0.13442305E-09  0.13538535E-10
    1    7   -0.57685437E-02 -0.11483264E-10
    2    7    0.75846656E-10 -0.15687916E-10
    3    7    0.53254890E-02 -0.50350002E-11
    4    7   -0.14494259E-02 -0.56888331E-11
    5    7   -0.45801069E-03  0.20179492E-11
    6    7   -0.27074686E-09  0.31910071E-11
    7    7    0.13658317E-02 -0.87914554E-11
    8    7   -0.25273101E-02  0.56198507E-11
    1    8   -0.20310710E-02 -0.70323192E-11
    2    8    0.92809648E-10  0.31413811E-12
    3    8   -0.14494263E-02  0.34074498E-10
    4    8   -0.33935585E-02  0.28519132E-10
    5    8   -0.15812262E-03  0.18353333E-10
    6    8   -0.48291499E-11  0.43944701E-11
    7    8    0.15473051E-02 -0.29854962E-10
    8    8    0.67935361E-05  0.32297012E-11

   -3   -3    0
    1    1    0.66894795E-03  0.26767762E-10
    2    1   -0.21173864E-09 -0.18437830E-10
    3    1   -0.13094547E-01  0.43411240E-10
    4    1   -0.18706155E-01  0.26104487E-10
    5    1   -0.79395160E-02 -0.32982138E-10
    6    1   -0.11333586E-08  0.41904277E-11
    7    1    0.11852909E-01  0.23920062E-10
    8    1   -0.12276067E-02 -0.20290575E-11
    1    2    0.20915420E-10  0.58933684E-12
    2    2   -0.27807796E-02 -0.42603837E-11
    3    2    0.22071333E-09 -0.13310069E-11
    4    2    0.29405445E-09 -0.22973568E-10
    5    2   -0.23031430E-09  0.46233562E-11
    6    2    0.17237875E-02 -0.52834126E-11
    7    2   -0.13209163E-09  0.11522970E-10
    8    2   -0.16795652E-09  0.87814618E-11
    1    3    0.64696290E-02  0.98655216E-11
    2    3   -0.78623328E-10 -0.39828362E-10
    3    3   -0.47277414E-02  0.30502365E-10
    4    3   -0.22475867E-03  0.35221972E-10
    5    3   -0.11852911E-01  0.46267363E-10
    6    3   -0.13707230E-08 -0.20416477E-10
    7    3    0.60410571E-03 -0.31364522E-10
    8    3    0.27113612E-02 -0.16547229E-10
    1    4    0.37560188E-02 -0.18886212E-11
    2    4   -0.10247854E-09 -0.23257783E-10
    3    4   -0.34619109E-02  0.21541136E-10
    4    4   -0.30418559E-02  0.73264936E-11
    5    4    0.12276056E-02 -0.58396676E-10
    6    4   -0.29177567E-09 -0.13801677E-10
    7    4    0.27113615E-02  0.10172961E-10
    8    4   -0.38257671E-02  0.76434831E-11
    1    5    0.17608436E-02 -0.13345991E-10
    2    5   -0.25593046E-09 -0.15386998E-10
    3    5   -0.20348848E-02  0.91544146E-11
    4    5   -0.18486234E-02  0.16666737E-11
    5    5    0.66894630E-03 -0.23884790E-10
    6    5    0.22689730E-09 -0.38742239E-11
    7    5   -0.64696279E-02 -0.24580624E-11
    8    5   -0.37560176E-02  0.27110959E-10
    1    6    0.54568174E-09  0.24614029E-10
    2    6    0.17237875E-02  0.31768338E-11
    3    6    0.20728230E-09 -0.63261059E-10
    4    6    0.11463789E-08  0.58426265E-11
    5    6    0.21047653E-08  0.38857305E-11
    6    6   -0.27807796E-02  0.41379192E-11
    7    6   -0.83179735E-09 -0.17709307E-10
    8    6   -0.50727792E-09  0.76166745E-11
    1    7    0.20348875E-02 -0.24844867E-10
    2    7    0.28382377E-11  0.13011082E-10
    3    7   -0.84791906E-02 -0.12815499E-10
    4    7    0.42422898E-02 -0.40972593E-10
    5    7    0.13094549E-01  0.60350288E-11
    6    7    0.15539945E-08 -0.15545327E-10
    7    7   -0.47277398E-02  0.11959465E-10
    8    7   -0.34619116E-02 -0.27349189E-10
    1    8    0.18486224E-02 -0.25185090E-10
    2    8   -0.15299189E-09  0.43843831E-10
    3    8    0.42422894E-02  0.28411079E-10
    4    8    0.14947025E-01  0.35391495E-10
    5    8    0.18706154E-01  0.53955784E-10
    6    8    0.24981560E-08 -0.11320145E-10
    7    8   -0.22475426E-03 -0.20934957E-10
    8    8   -0.30418557E-02 -0.59697716E-10

   -3   -2    0
    1    1    0.30511449E-03 -0.54989867E-10
    2    1   -0.42420258E-11 -0.10159987E-10
    3    1   -0.34931344E-03 -0.85103675E-10
    4    1   -0.50691957E-02 -0.35764645E-10
    5    1   -0.24747252E-02  0.85294896E-11
    6    1   -0.70399589E-09  0.81700238E-12
    7    1    0.13389516E-01 -0.75723455E-12
    8    1    0.85022101E-04  0.39469206E-10
    1    2    0.94846670E-10  0.91001600E-12
    2    2    0.36659003E-02  0.41026566E-11
    3    2   -0.18425995E-09 -0.62108851E-10
    4    2   -0.15109831E-09 -0.16547448E-10
    5    2    0.78342902E-09 -0.24549148E-10
    6    2   -0.56040106E-02  0.38327327E-11
    7    2   -0.77898251E-10  0.33174980E-11
    8    2    0.51477621E-09  0.35088723E-10
    1    3    0.13462840E-01 -0.37071291E-10
    2    3   -0.29658336E-09  0.55298911E-11
    3    3   -0.23790385E-01  0.84662321E-11
    4    3   -0.13652038E-01 -0.17028419E-10
    5    3   -0.13389521E-01 -0.82530423E-11
    6    3   -0.10729346E-08  0.41950380E-10
    7    3    0.19555735E-01  0.34414097E-10
    8    3    0.10777962E-01  0.17116676E-10
    1    4   -0.31215650E-02  0.12641267E-10
    2    4    0.16385817E-10 -0.28057572E-10
    3    4   -0.10175567E-01 -0.63857383E-11
    4    4   -0.16557827E-01 -0.49710149E-11
    5    4   -0.85025292E-04  0.26009916E-10
    6    4   -0.67497523E-10 -0.22858157E-10
    7    4    0.10777963E-01  0.17838231E-11
    8    4   -0.26967986E-02  0.25677377E-11
    1    5   -0.54600955E-03  0.30850045E-11
    2    5   -0.10722379E-08  0.16338623E-10
    3    5    0.19739379E-01  0.16487246E-10
    4    5    0.21406707E-01 -0.25441191E-10
    5    5    0.30511735E-03  0.63915651E-10
    6    5   -0.20551049E-09 -0.26759639E-11
    7    5   -0.13462834E-01  0.58739230E-10
    8    5    0.31215682E-02 -0.21127134E-10
    1    6   -0.17951810E-08 -0.83090093E-11
    2    6    0.81318292E-02  0.97833061E-11
    3    6    0.21797420E-08  0.49942195E-10
    4    6   -0.10530176E-09  0.47116555E-10
    5    6    0.13327918E-09  0.96906850E-13
    6    6    0.36659004E-02 -0.41721591E-11
    7    6   -0.30351251E-08  0.34519989E-11
    8    6   -0.14675826E-08 -0.19447540E-11
    1    7   -0.19739386E-01  0.89060436E-10
    2    7    0.10685896E-09  0.48648992E-10
    3    7    0.25144260E-01  0.53510585E-10
    4    7   -0.27200806E-02  0.10918295E-09
    5    7    0.34931927E-03  0.13656062E-10
    6    7   -0.75557740E-09  0.32091773E-10
    7    7   -0.23790390E-01 -0.14040638E-10
    8    7   -0.10175566E-01  0.13495114E-10
    1    8   -0.21406706E-01  0.68649374E-11
    2    8   -0.72892304E-09 -0.22224108E-11
    3    8   -0.27200850E-02  0.59991893E-10
    4    8   -0.28601386E-01 -0.44320467E-11
    5    8    0.50691987E-02 -0.35055119E-10
    6    8   -0.78409803E-09 -0.41636684E-10
    7    8   -0.13652036E-01  0.33064197E-10
    8    8   -0.16557826E-01  0.10695030E-10

   -3   -1    0
    1    1   -0.14622928E-02  0.32024054E-11
    2    1   -0.11977876E-09  0.14936459E-10
    3    1    0.30492255E-02  0.52650520E-10
    4    1   -0.10573588E-01  0.51465056E-11
    5    1   -0.19921275E-02 -0.10634521E-10
    6    1   -0.58179478E-09  0.14059436E-10
    7    1    0.10243905E-01  0.11144766E-11
    8    1   -0.48669823E-02 -0.25377514E-10
    1    2    0.96922570E-10  0.47202017E-10
    2    2    0.36659015E-02 -0.86997250E-11
    3    2   -0.10864591E-11  0.23682634E-11
    4    2   -0.11616615E-09  0.37955390E-10
    5    2   -0.22766436E-09  0.27641192E-10
    6    2    0.17237588E-02 -0.49285437E-11
    7    2   -0.52657580E-10 -0.27886779E-10
    8    2   -0.23179726E-09 -0.16435210E-10
    1    3    0.79162790E-02  0.36721887E-10
    2    3   -0.20234850E-09 -0.30488061E-12
    3    3   -0.21316312E-01 -0.60639483E-10
    4    3   -0.19854479E-01 -0.33205590E-10
    5    3   -0.10243907E-01 -0.63047213E-10
    6    3   -0.15614705E-08 -0.26060837E-10
    7    3    0.86452861E-02 -0.11287193E-10
    8    3   -0.12130119E-02 -0.43794184E-10
    1    4   -0.22244715E-02 -0.17926494E-10
    2    4   -0.16366180E-09  0.10607067E-11
    3    4   -0.79296109E-02  0.14007229E-10
    4    4   -0.17264461E-01  0.46597639E-11
    5    4    0.48669821E-02 -0.16796339E-11
    6    4    0.18560062E-09  0.77144517E-11
    7    4   -0.12130103E-02  0.72066103E-11
    8    4   -0.64931330E-02  0.19941521E-10
    1    5    0.11911160E-01  0.23136604E-10
    2    5    0.27721872E-08  0.33889236E-11
    3    5   -0.18950633E-02 -0.93263831E-10
    4    5    0.13447361E-01 -0.62301948E-10
    5    5   -0.14622901E-02 -0.48918715E-10
    6    5   -0.46043769E-09  0.17100450E-11
    7    5   -0.79162745E-02 -0.12187471E-10
    8    5    0.22244736E-02  0.27195517E-10
    1    6    0.10735533E-09 -0.21235740E-10
    2    6   -0.19522841E-01 -0.27451305E-11
    3    6    0.80088471E-08  0.76948086E-11
    4    6    0.65373453E-08 -0.23716415E-10
    5    6    0.21258983E-09  0.21002442E-11
    6    6    0.36659015E-02  0.86411486E-11
    7    6   -0.27764544E-08  0.18766202E-11
    8    6   -0.17713637E-08 -0.13870035E-10
    1    7    0.18950444E-02 -0.44650473E-10
    2    7    0.85686959E-09  0.88580591E-11
    3    7    0.87078218E-01 -0.52359936E-10
    4    7    0.84309096E-01 -0.10359601E-09
    5    7   -0.30492201E-02 -0.30703737E-10
    6    7   -0.10211958E-08 -0.11627757E-10
    7    7   -0.21316316E-01  0.28983306E-10
    8    7   -0.79296101E-02  0.35131915E-11
    1    8   -0.13447382E-01 -0.55330837E-10
    2    8    0.24524673E-08 -0.18748040E-10
    3    8    0.84309087E-01 -0.14777693E-11
    4    8    0.50015741E-01 -0.35762684E-10
    5    8    0.10573593E-01 -0.25496360E-10
    6    8   -0.23532359E-09  0.15326065E-10
    7    8   -0.19854477E-01  0.12487015E-10
    8    8   -0.17264460E-01  0.75403409E-10

   -3    0    0
    1    1    0.72049814E-03  0.20240754E-10
    2    1   -0.90274992E-10 -0.12921522E-10
    3    1   -0.42348712E-02  0.74316161E-11
    4    1   -0.51386612E-02  0.12645357E-10
    5    1   -0.31341256E-03 -0.13136797E-10
    6    1   -0.14549306E-09 -0.11485917E-10
    7    1    0.51098097E-03  0.20229647E-11
    8    1   -0.14613575E-02  0.23831118E-10
    1    2   -0.61265034E-10 -0.18112415E-10
    2    2   -0.27808099E-02 -0.78829304E-11
    3    2    0.11744574E-09  0.12420649E-10
    4    2    0.15201815E-09 -0.14861605E-10
    5    2   -0.67106229E-10 -0.14349009E-10
    6    2    0.25910579E-03 -0.48500648E-11
    7    2   -0.40318818E-10  0.60504633E-11
    8    2    0.24662829E-10  0.84242414E-11
    1    3    0.42343540E-02 -0.19853943E-12
    2    3   -0.15402988E-09 -0.27345269E-10
    3    3   -0.10967104E-01  0.58965945E-10
    4    3   -0.14134254E-01 -0.20020863E-10
    5    3   -0.51098282E-03  0.40950398E-10
    6    3   -0.17624717E-09  0.41122176E-11
    7    3    0.77224006E-02  0.14679556E-10
    8    3   -0.15576972E-02  0.17337555E-10
    1    4   -0.51380827E-02 -0.74876494E-11
    2    4    0.11562301E-09  0.55098479E-11
    3    4    0.14134596E-01 -0.88790944E-11
    4    4    0.31460382E-02 -0.25716811E-10
    5    4    0.14613577E-02 -0.38755277E-10
    6    4   -0.11760945E-09 -0.45435502E-12
    7    4   -0.15576968E-02  0.45474111E-11
    8    4   -0.32126992E-02 -0.16182278E-10
    1    5    0.27219098E-02  0.35141785E-10
    2    5   -0.11992374E-08 -0.28300150E-10
    3    5   -0.16185977E-01  0.46741279E-10
    4    5   -0.49302679E-02 -0.84468682E-11
    5    5    0.72049819E-03 -0.22666730E-11
    6    5    0.95441373E-09 -0.23412815E-10
    7    5   -0.42343511E-02  0.20493402E-10
    8    5    0.51380794E-02 -0.38765893E-10
    1    6    0.10452193E-08 -0.10827668E-10
    2    6    0.81318250E-02  0.67404415E-11
    3    6   -0.14744426E-08  0.25752228E-10
    4    6    0.19571689E-08 -0.30440710E-10
    5    6    0.93673627E-09 -0.35986656E-11
    6    6   -0.27808099E-02  0.77863861E-11
    7    6   -0.18518567E-08  0.35598601E-10
    8    6    0.12615385E-08 -0.24528872E-10
    1    7    0.16185987E-01 -0.88777180E-11
    2    7   -0.16908362E-09 -0.16593551E-10
    3    7   -0.36738249E-01  0.38894860E-10
    4    7    0.11854082E-01  0.58437673E-10
    5    7    0.42348743E-02  0.55322133E-10
    6    7    0.18424924E-08  0.14578642E-10
    7    7   -0.10967104E-01  0.22236952E-10
    8    7    0.14134598E-01  0.16072419E-10
    1    8    0.49302644E-02  0.17631549E-10
    2    8   -0.76396222E-09  0.51139435E-10
    3    8    0.11854084E-01 -0.74704565E-11
    4    8    0.31453917E-01  0.69440842E-11
    5    8    0.51386644E-02 -0.46753226E-11
    6    8    0.11925988E-08  0.23051500E-10
    7    8   -0.14134253E-01  0.47252367E-10
    8    8    0.31460382E-02 -0.79519554E-10

   -3    1    0
    1    1    0.28109897E-03 -0.32256128E-10
    2    1    0.97941729E-11  0.41930425E-11
    3    1    0.10264896E-02 -0.54165377E-11
    4    1    0.36207451E-02 -0.10108775E-10
    5    1    0.32868144E-02 -0.76681994E-11
    6    1    0.47228890E-09  0.13858153E-10
    7    1   -0.77724688E-03  0.36405479E-11
    8    1    0.51030664E-03  0.10719106E-10
    1    2    0.36132942E-11  0.21798041E-10
    2    2   -0.61519904E-03 -0.52961541E-11
    3    2    0.64498840E-10 -0.11406437E-10
    4    2   -0.72570305E-10  0.11173187E-10
    5    2   -0.84035976E-10  0.96546049E-11
    6    2    0.12437265E-03  0.10906970E-11
    7    2    0.42156342E-10 -0.54094013E-11
    8    2   -0.42359651E-10 -0.53117503E-11
    1    3   -0.14945559E-02  0.15402694E-10
    2    3    0.24273183E-10  0.11112153E-10
    3    3    0.31252370E-03 -0.31830922E-10
    4    3    0.15386502E-03  0.69404640E-11
    5    3    0.77724699E-03 -0.38250323E-11
    6    3    0.15345677E-09  0.14182379E-10
    7    3    0.27491990E-02 -0.96611052E-11
    8    3    0.27273992E-03 -0.50022955E-11
    1    4    0.59975698E-04 -0.35632060E-10
    2    4    0.30851593E-10 -0.93264547E-11
    3    4    0.11941361E-02  0.16110167E-10
    4    4   -0.10805207E-02  0.10892478E-10
    5    4   -0.51030666E-03  0.13736220E-10
    6    4   -0.91480886E-12  0.65981893E-11
    7    4    0.27273980E-03  0.71963199E-11
    8    4   -0.18182042E-03  0.20321314E-10
    1    5   -0.19913546E-02 -0.13270746E-10
    2    5   -0.19262031E-09  0.24082015E-10
    3    5    0.10243693E-01 -0.68070146E-11
    4    5    0.48668555E-02  0.28467589E-10
    5    5    0.28109892E-03  0.26138786E-10
    6    5    0.81487203E-10  0.13546609E-10
    7    5    0.14945558E-02  0.18387128E-11
    8    5   -0.59976028E-04 -0.71583711E-11
    1    6   -0.58898457E-09 -0.32058838E-11
    2    6    0.17237585E-02  0.29694025E-11
    3    6    0.15876879E-08 -0.17256638E-10
    4    6    0.14838948E-09  0.84060067E-11
    5    6   -0.22891598E-09  0.10324384E-10
    6    6   -0.61519904E-03  0.51091961E-11
    7    6    0.28538767E-09 -0.11748446E-10
    8    6   -0.34833564E-10  0.48122564E-11
    1    7   -0.10243696E-01  0.32261380E-10
    2    7    0.74986511E-10  0.33423935E-10
    3    7    0.86462312E-02 -0.84166077E-11
    4    7    0.12131377E-02  0.76025748E-11
    5    7   -0.10264897E-02 -0.19681156E-10
    6    7   -0.79708644E-10 -0.12245575E-10
    7    7    0.31252372E-03 -0.14990899E-10
    8    7    0.11941362E-02 -0.34907459E-10
    1    8   -0.48668553E-02 -0.13848318E-10
    2    8   -0.20288400E-09 -0.25621054E-10
    3    8    0.12131360E-02 -0.78529509E-11
    4    8   -0.64931478E-02  0.78829443E-11
    5    8   -0.36207449E-02 -0.18105968E-10
    6    8   -0.44548719E-09 -0.21151768E-10
    7    8    0.15386411E-03 -0.89549887E-11
    8    8   -0.10805208E-02  0.39363190E-10

   -3    2    0
    1    1   -0.22367133E-02  0.32034028E-11
    2    1    0.21003714E-10  0.14624715E-11
    3    1   -0.24681814E-02 -0.75830392E-11
    4    1   -0.17172512E-02  0.55171839E-12
    5    1    0.31872203E-03  0.10471694E-10
    6    1    0.25795532E-09  0.28870734E-11
    7    1   -0.20702337E-07  0.61733899E-11
    8    1    0.15395237E-02  0.39170056E-11
    1    2    0.28569955E-10 -0.10015024E-10
    2    2    0.51489295E-04  0.55817156E-12
    3    2    0.24067626E-10  0.16853871E-10
    4    2    0.90256908E-10 -0.10671854E-10
    5    2   -0.37845186E-10 -0.36258434E-11
    6    2    0.14518956E-03  0.24720226E-11
    7    2   -0.86485078E-11  0.11858046E-10
    8    2   -0.10692490E-10 -0.37833262E-11
    1    3   -0.71296810E-03  0.68620170E-11
    2    3    0.19196593E-11 -0.16288041E-10
    3    3   -0.15914990E-02  0.32399933E-11
    4    3   -0.22317062E-02 -0.13759261E-11
    5    3    0.21110406E-07 -0.40151112E-11
    6    3   -0.12076001E-10 -0.17527587E-10
    7    3   -0.15454302E-02 -0.18551827E-11
    8    3   -0.12103289E-07 -0.20234248E-10
    1    4    0.49412859E-03  0.10228162E-10
    2    4    0.37980284E-10  0.10284983E-10
    3    4    0.78612547E-03 -0.59168911E-11
    4    4    0.45406070E-02  0.10702935E-10
    5    4   -0.15395238E-02 -0.15530077E-11
    6    4    0.16384999E-09  0.69757421E-11
    7    4   -0.12264619E-07 -0.97805791E-11
    8    4    0.40668489E-02 -0.16305846E-11
    1    5    0.56105497E-03  0.16080859E-10
    2    5    0.16859198E-10 -0.89795371E-11
    3    5   -0.12323588E-02 -0.10899552E-10
    4    5   -0.22278834E-02 -0.90649814E-11
    5    5   -0.22367140E-02 -0.36654152E-11
    6    5   -0.35164234E-09 -0.11136814E-10
    7    5    0.71296789E-03 -0.63851563E-11
    8    5   -0.49412881E-03 -0.49997888E-11
    1    6    0.31790059E-09 -0.14689355E-10
    2    6   -0.44515724E-03 -0.15424606E-11
    3    6   -0.17141419E-09  0.14589689E-10
    4    6    0.51538564E-09 -0.22382353E-10
    5    6   -0.15104969E-09 -0.26434572E-11
    6    6    0.51489296E-04 -0.63722291E-12
    7    6   -0.10159475E-09  0.14437830E-10
    8    6    0.31670194E-09 -0.88922372E-11
    1    7    0.12323602E-02 -0.25160551E-11
    2    7    0.10907131E-10 -0.23764636E-10
    3    7   -0.53876610E-02 -0.17494977E-11
    4    7    0.38116982E-04  0.45859705E-11
    5    7    0.24681814E-02 -0.12536774E-10
    6    7    0.44608752E-09 -0.15653184E-10
    7    7   -0.15914983E-02 -0.78539206E-11
    8    7    0.78612573E-03  0.14757876E-10
    1    8    0.22278832E-02 -0.55783156E-12
    2    8    0.95382193E-10  0.18186114E-10
    3    8    0.38117320E-04  0.32303347E-10
    4    8    0.94652587E-02  0.19224126E-10
    5    8    0.17172516E-02  0.19494434E-10
    6    8    0.64478371E-09  0.16203580E-10
    7    8   -0.22317055E-02 -0.83949956E-11
    8    8    0.45406072E-02 -0.79674496E-11

   -2   -5    0
    1    1    0.19477719E-02 -0.16967670E-10
    2    1   -0.19145692E-10  0.96385764E-11
    3    1    0.56035267E-02 -0.21989673E-10
    4    1   -0.91657418E-03  0.13506758E-10
    5    1    0.24016991E-02 -0.11054227E-10
    6    1   -0.44568619E-09  0.84847527E-11
    7    1    0.49758313E-07 -0.14741062E-10
    8    1   -0.87488897E-02  0.12003121E-10
    1    2   -0.25530162E-10 -0.25432067E-11
    2    2    0.51489254E-04 -0.22235668E-11
    3    2   -0.10319130E-09  0.12436812E-10
    4    2   -0.48636481E-11 -0.69104878E-11
    5    2    0.20692624E-09 -0.99011896E-11
    6    2   -0.92161355E-03  0.17191110E-11
    7    2    0.14128771E-10  0.14631880E-10
    8    2    0.17946423E-09 -0.41590032E-11
    1    3    0.21731140E-02  0.75806850E-11
    2    3   -0.56535626E-10 -0.42460692E-11
    3    3   -0.10166162E-02  0.82342119E-12
    4    3   -0.17354833E-04  0.19328423E-11
    5    3   -0.49825375E-07 -0.12665809E-10
    6    3    0.15956111E-11 -0.18020021E-10
    7    3    0.93282188E-03  0.92737276E-11
    8    3    0.16553082E-06  0.28864237E-11
    1    4    0.55773716E-03 -0.48484619E-11
    2    4   -0.78326845E-11  0.40736670E-11
    3    4   -0.15052762E-02 -0.11145079E-10
    4    4   -0.21875124E-03 -0.41936073E-11
    5    4    0.87488897E-02 -0.10233418E-10
    6    4    0.97025051E-09  0.16675965E-10
    7    4    0.16745533E-06 -0.24062280E-11
    8    4   -0.30297763E-02  0.14620527E-11
    1    5   -0.17304065E-02  0.26717517E-12
    2    5    0.29331017E-10  0.55700046E-11
    3    5   -0.17368460E-02 -0.17137550E-11
    4    5   -0.69694376E-04 -0.95351088E-11
    5    5    0.19477736E-02  0.22824111E-10
    6    5    0.18732976E-09 -0.10351598E-11
    7    5   -0.21731133E-02  0.15795253E-10
    8    5   -0.55773672E-03 -0.11884702E-10
    1    6   -0.20208708E-09 -0.91514809E-11
    2    6    0.14497443E-03  0.81326612E-12
    3    6   -0.22874671E-09  0.39822159E-11
    4    6   -0.49961601E-11 -0.60582894E-11
    5    6    0.35531440E-09 -0.15274136E-10
    6    6    0.51489256E-04  0.23255026E-11
    7    6   -0.25378776E-09  0.10352223E-10
    8    6   -0.88929976E-10 -0.13211489E-11
    1    7    0.17368453E-02 -0.80313273E-12
    2    7   -0.18707733E-10  0.54222221E-13
    3    7    0.16805665E-02  0.57161220E-11
    4    7   -0.15982089E-03  0.13015670E-10
    5    7   -0.56035260E-02 -0.61721969E-11
    6    7   -0.89514569E-09 -0.13517249E-10
    7    7   -0.10166181E-02  0.96463029E-11
    8    7   -0.15052763E-02  0.69263631E-11
    1    8    0.69694349E-04 -0.82334972E-11
    2    8    0.59512708E-11  0.27189105E-11
    3    8   -0.15982103E-03  0.17615170E-10
    4    8   -0.21725308E-03  0.18046814E-11
    5    8    0.91657448E-03  0.19616017E-10
    6    8    0.14898661E-09  0.75225441E-11
    7    8   -0.17354511E-04 -0.14939339E-11
    8    8   -0.21875118E-03 -0.11801948E-10

   -2   -4    0
    1    1    0.24599497E-02  0.21799812E-10
    2    1    0.14443532E-09 -0.15531706E-10
    3    1    0.16161587E-06  0.29226385E-10
    4    1    0.12615301E-01 -0.97468145E-11
    5    1    0.19629463E-01  0.13960090E-10
    6    1    0.24997332E-08 -0.47674366E-10
    7    1   -0.25476085E-02  0.57425852E-11
    8    1   -0.38452587E-02 -0.12760779E-10
    1    2   -0.10451302E-09  0.11419146E-10
    2    2    0.20516170E-02 -0.95011672E-12
    3    2    0.88224030E-11 -0.34810111E-10
    4    2   -0.16226569E-09  0.14279981E-10
    5    2   -0.11310949E-11  0.52600499E-11
    6    2   -0.96398155E-03 -0.19899360E-12
    7    2   -0.27853763E-10 -0.24623845E-10
    8    2    0.13639516E-09  0.22139981E-10
    1    3    0.68982838E-07 -0.22624838E-10
    2    3    0.38342483E-10 -0.15724029E-10
    3    3    0.71081791E-02  0.50280325E-10
    4    3   -0.26830986E-06 -0.15316819E-10
    5    3    0.25476113E-02 -0.96535488E-11
    6    3    0.24438372E-10  0.38124206E-11
    7    3    0.84279185E-02  0.59631605E-11
    8    3   -0.32099941E-02  0.21764552E-10
    1    4   -0.78716838E-02  0.12124135E-10
    2    4    0.16430981E-09 -0.13706321E-10
    3    4    0.15681412E-06  0.12760485E-10
    4    4    0.32769269E-02  0.39429883E-11
    5    4    0.38452598E-02 -0.21351296E-10
    6    4    0.69167081E-09 -0.28091120E-10
    7    4   -0.32099928E-02 -0.25621059E-11
    8    4    0.69126836E-03  0.46587734E-13
    1    5   -0.23397819E-02 -0.88015983E-11
    2    5    0.84645170E-10 -0.13859926E-10
    3    5   -0.57686531E-02 -0.47034481E-11
    4    5    0.20310114E-02 -0.99218758E-11
    5    5    0.24599497E-02 -0.20668946E-10
    6    5    0.74996771E-09 -0.14297776E-10
    7    5   -0.69672894E-07 -0.50322550E-11
    8    5    0.78716839E-02  0.29614131E-10
    1    6   -0.49336377E-09  0.98066154E-11
    2    6   -0.44515685E-03 -0.28262254E-11
    3    6   -0.69553393E-09 -0.33269004E-10
    4    6   -0.94814398E-10  0.58340680E-11
    5    6   -0.94805016E-09 -0.68839540E-11
    6    6    0.20516170E-02  0.94488480E-12
    7    6   -0.12977985E-10 -0.17459009E-10
    8    6    0.10134306E-08  0.22040225E-10
    1    7    0.57686511E-02  0.25025563E-11
    2    7   -0.59471348E-10  0.53193020E-11
    3    7    0.53250018E-02  0.12122685E-10
    4    7    0.14494528E-02  0.51156995E-12
    5    7   -0.16325633E-06  0.17688554E-10
    6    7   -0.14210226E-10  0.36257143E-10
    7    7    0.71081792E-02 -0.34316982E-10
    8    7    0.15843440E-06 -0.93336857E-11
    1    8   -0.20310122E-02 -0.79939805E-11
    2    8    0.40655818E-10  0.20474219E-10
    3    8    0.14494524E-02 -0.20428471E-10
    4    8   -0.33935759E-02 -0.10387441E-10
    5    8   -0.12615301E-01 -0.91333260E-11
    6    8   -0.16139048E-08  0.21663043E-10
    7    8   -0.27147299E-06  0.27301453E-10
    8    8    0.32769270E-02 -0.20962291E-10

   -2   -3    0
    1    1   -0.27372559E-01 -0.71439313E-11
    2    1    0.56554514E-09  0.18740794E-10
    3    1    0.51280076E-03 -0.54621628E-11
    4    1   -0.18443128E-01 -0.44104415E-10
    5    1   -0.85458835E-02  0.38542905E-10
    6    1   -0.99723837E-09  0.47959354E-10
    7    1   -0.34245487E-01  0.18584849E-10
    8    1   -0.46341654E-02 -0.61737976E-11
    1    2    0.22443027E-09  0.11090515E-11
    2    2    0.36659004E-02  0.73811591E-11
    3    2   -0.10867604E-09  0.44406829E-10
    4    2    0.16519496E-09  0.36107028E-11
    5    2   -0.11684632E-08 -0.34291254E-10
    6    2    0.81318292E-02 -0.92586078E-11
    7    2    0.33072542E-09 -0.70093834E-11
    8    2   -0.68019775E-09 -0.52187403E-11
    1    3    0.22648652E-02  0.46145891E-11
    2    3   -0.68190564E-11  0.46331544E-10
    3    3   -0.11867574E-01 -0.84307761E-10
    4    3    0.45810758E-02  0.16035325E-10
    5    3    0.34245487E-01  0.12621386E-09
    6    3    0.35304139E-08 -0.26218541E-11
    7    3   -0.83927762E-02  0.51723070E-10
    8    3   -0.15631438E-01  0.38675937E-11
    1    4   -0.71895740E-02  0.60335174E-11
    2    4    0.88992525E-10 -0.50876138E-11
    3    4   -0.16331597E-02 -0.21641187E-11
    4    4   -0.80296574E-03  0.37445583E-10
    5    4    0.46341707E-02  0.46583806E-10
    6    4    0.36955708E-09  0.23490917E-10
    7    4   -0.15631438E-01 -0.26861985E-10
    8    4   -0.31090883E-02 -0.20416738E-10
    1    5   -0.83556831E-02  0.69907136E-11
    2    5    0.83053351E-09  0.36629322E-10
    3    5    0.35825732E-06  0.26323683E-11
    4    5   -0.13693442E-01  0.27513894E-10
    5    5   -0.27372558E-01  0.52523610E-12
    6    5   -0.38792585E-08  0.42245801E-10
    7    5   -0.22648684E-02 -0.30144001E-10
    8    5    0.71895743E-02 -0.36997911E-10
    1    6   -0.12285460E-09  0.93771943E-11
    2    6   -0.56040106E-02  0.72880174E-11
    3    6   -0.73688252E-11  0.58057459E-10
    4    6    0.29353442E-09 -0.11653791E-12
    5    6   -0.22215556E-08  0.43616651E-10
    6    6    0.36659003E-02 -0.74441182E-11
    7    6    0.46376828E-10  0.40378383E-12
    8    6    0.48459979E-09 -0.60260462E-10
    1    7   -0.35685292E-06  0.13623370E-10
    2    7   -0.37234366E-10 -0.10790273E-10
    3    7   -0.98481188E-02 -0.32182867E-10
    4    7   -0.20086917E-06  0.80506643E-11
    5    7   -0.51280351E-03 -0.15892141E-10
    6    7   -0.12202609E-09 -0.13384819E-10
    7    7   -0.11867574E-01 -0.22168283E-10
    8    7   -0.16331576E-02  0.62968181E-11
    1    8    0.13693442E-01  0.16066313E-10
    2    8    0.41368625E-09 -0.63630128E-10
    3    8   -0.19856639E-06 -0.26091664E-10
    4    8    0.19914086E-01  0.12395937E-10
    5    8    0.18443127E-01 -0.67623195E-10
    6    8    0.23909812E-08 -0.30354558E-10
    7    8    0.45810806E-02  0.93676586E-11
    8    8   -0.80296588E-03  0.73848946E-10

   -2   -2    0
    1    1    0.92031262E-02  0.25876992E-10
    2    1    0.29718157E-11 -0.21801839E-10
    3    1    0.74742264E-01  0.39167539E-10
    4    1    0.98502352E-01  0.78028206E-10
    5    1    0.18243997E-01 -0.80095930E-11
    6    1    0.23016980E-08  0.45848276E-10
    7    1   -0.38914622E-01 -0.58390657E-10
    8    1    0.58833648E-02 -0.20811417E-10
    1    2   -0.30593483E-09  0.23343486E-10
    2    2   -0.19469504E-01 -0.12329845E-10
    3    2   -0.10186913E-08 -0.30441349E-10
    4    2   -0.93741962E-09  0.49879232E-11
    5    2    0.13273764E-08  0.27400629E-10
    6    2   -0.14045153E-01 -0.10970530E-11
    7    2    0.26759590E-09 -0.66784329E-10
    8    2    0.12517253E-08 -0.40656018E-10
    1    3   -0.43986832E-01  0.43445101E-10
    2    3    0.20418920E-09 -0.28929151E-10
    3    3    0.46918283E-01  0.76911394E-10
    4    3   -0.10902248E-01  0.65847851E-10
    5    3    0.38914634E-01 -0.13135810E-09
    6    3    0.26850916E-08 -0.32926467E-10
    7    3   -0.39286848E-01 -0.38161932E-10
    8    3   -0.36670807E-01  0.70418019E-10
    1    4   -0.50368774E-02 -0.12213924E-10
    2    4    0.38954292E-09  0.56593483E-10
    3    4    0.31984008E-01  0.42915176E-10
    4    4    0.31045115E-01  0.42261339E-10
    5    4   -0.58833542E-02 -0.81715242E-11
    6    4   -0.10604532E-08  0.25670645E-10
    7    4   -0.36670812E-01  0.20803796E-10
    8    4   -0.17038675E-02  0.24421062E-10
    1    5    0.35816453E-01  0.12581922E-10
    2    5    0.17253763E-08 -0.46861420E-10
    3    5    0.56237389E-02 -0.67394007E-12
    4    5    0.29723391E-01  0.52392944E-10
    5    5    0.92031335E-02 -0.46476940E-10
    6    5    0.47035945E-08 -0.31981718E-10
    7    5    0.43986823E-01 -0.21201958E-10
    8    5    0.50368680E-02  0.33331189E-10
    1    6    0.15726977E-08 -0.27892146E-10
    2    6   -0.14045153E-01  0.77748710E-11
    3    6    0.11064766E-09 -0.44834027E-10
    4    6   -0.14193554E-08 -0.44001570E-10
    5    6   -0.51714806E-08  0.43994859E-11
    6    6   -0.19469504E-01  0.12386158E-10
    7    6    0.50587703E-08  0.50751274E-10
    8    6    0.53587742E-08  0.39845942E-10
    1    7   -0.56237415E-02  0.43900885E-10
    2    7   -0.18143661E-09 -0.17368642E-10
    3    7    0.34000072E-01  0.41484163E-10
    4    7   -0.94432146E-02 -0.17024923E-11
    5    7   -0.74742277E-01 -0.81845869E-10
    6    7   -0.79721267E-08 -0.14331777E-10
    7    7    0.46918276E-01 -0.67569015E-10
    8    7    0.31984007E-01 -0.37315045E-10
    1    8   -0.29723389E-01 -0.37056816E-10
    2    8    0.11223971E-08  0.28968135E-10
    3    8   -0.94432171E-02 -0.82490896E-10
    4    8   -0.60189908E-01 -0.24778637E-10
    5    8   -0.98502347E-01  0.33229431E-10
    6    8   -0.10331584E-07  0.79924378E-10
    7    8   -0.10902272E-01 -0.88845643E-10
    8    8    0.31045114E-01 -0.27288808E-10

   -2   -1    0
    1    1    0.11677405E-01  0.43387884E-10
    2    1    0.11498744E-08 -0.31252705E-10
    3    1    0.84628908E-02 -0.38854463E-10
    4    1    0.54183955E-01 -0.23566565E-11
    5    1    0.55499792E-02  0.33290815E-10
    6    1    0.19720128E-08 -0.39823655E-10
    7    1   -0.34630893E-01  0.51323264E-11
    8    1    0.14570135E-01  0.13464861E-10
    1    2    0.65476568E-09 -0.43293999E-10
    2    2    0.53489522E-01 -0.11411467E-10
    3    2    0.14068187E-09  0.12555234E-09
    4    2   -0.89607368E-09 -0.39393217E-10
    5    2    0.18606921E-08 -0.18960902E-10
    6    2   -0.14045127E-01  0.74830420E-12
    7    2    0.47151654E-09  0.88445868E-10
    8    2    0.95549509E-09 -0.36973657E-10
    1    3   -0.40914026E-01 -0.24481227E-10
    2    3    0.15610878E-08 -0.40704187E-11
    3    3    0.14984316E+00 -0.22479806E-10
    4    3    0.90228603E-01 -0.27126738E-14
    5    3    0.34630908E-01  0.10878273E-09
    6    3    0.23080704E-08 -0.34819705E-10
    7    3   -0.57713612E-01 -0.12056127E-10
    8    3   -0.28034106E-01  0.38255725E-10
    1    4    0.28213625E-01  0.54157810E-10
    2    4    0.42794989E-09 -0.10592132E-10
    3    4    0.47656021E-01  0.36551179E-10
    4    4    0.85078745E-01  0.25572357E-11
    5    4   -0.14570126E-01  0.17576843E-10
    6    4   -0.11027568E-08 -0.43938472E-11
    7    4   -0.28034114E-01 -0.16894992E-10
    8    4    0.62078772E-02 -0.36521050E-10
    1    5   -0.12715245E-01 -0.40444897E-10
    2    5   -0.46598161E-08 -0.28891236E-11
    3    5   -0.77169598E-01  0.36129192E-10
    4    5   -0.10901224E+00  0.36563405E-10
    5    5    0.11677398E-01  0.40953893E-10
    6    5   -0.76787780E-08 -0.26266256E-10
    7    5    0.40913994E-01 -0.11711012E-09
    8    5   -0.28213639E-01 -0.70962090E-10
    1    6    0.85696044E-08  0.26182033E-10
    2    6    0.19346993E-01 -0.17188612E-10
    3    6   -0.11229442E-07 -0.33341154E-12
    4    6    0.40314125E-08 -0.35634834E-10
    5    6   -0.10717517E-07 -0.71412628E-10
    6    6    0.53489522E-01  0.11518753E-10
    7    6    0.12630183E-07  0.36842612E-10
    8    6   -0.74961903E-10  0.21139163E-10
    1    7    0.77169643E-01 -0.12548692E-09
    2    7   -0.19025102E-08 -0.27174219E-10
    3    7   -0.15725735E+00 -0.57146926E-10
    4    7    0.24798605E-02 -0.45191164E-10
    5    7   -0.84629271E-02  0.13968607E-10
    6    7    0.34749675E-08  0.21055891E-10
    7    7    0.14984317E+00  0.25600414E-10
    8    7    0.47656013E-01 -0.22512212E-10
    1    8    0.10901224E+00  0.14735435E-11
    2    8    0.38143395E-09 -0.20179231E-10
    3    8    0.24798699E-02  0.13383281E-09
    4    8    0.23172980E+00  0.17823015E-09
    5    8   -0.54183974E-01  0.76112706E-10
    6    8   -0.46163673E-08  0.57435371E-10
    7    8    0.90228585E-01 -0.76774321E-10
    8    8    0.85078739E-01 -0.96369478E-10

   -2    0    0
    1    1    0.83040023E-02 -0.55782781E-10
    2    1   -0.22161894E-09 -0.19366975E-10
    3    1    0.92583867E-02  0.90264013E-10
    4    1    0.34938758E-01 -0.72935560E-10
    5    1    0.27233224E-02  0.22653476E-10
    6    1    0.10752387E-08  0.41374734E-11
    7    1   -0.16187360E-01  0.34674451E-10
    8    1    0.49299001E-02  0.16422683E-10
    1    2   -0.20375466E-09  0.11210788E-10
    2    2   -0.19469478E-01 -0.20922014E-11
    3    2   -0.61831989E-09 -0.83044078E-10
    4    2   -0.52045714E-09  0.54669574E-10
    5    2   -0.11752981E-08  0.31214590E-10
    6    2    0.81318254E-02 -0.55456750E-11
    7    2    0.20903442E-09 -0.58848296E-10
    8    2   -0.80089385E-09  0.23978931E-10
    1    3   -0.92551781E-02 -0.15374294E-09
    2    3    0.63807521E-09  0.59040192E-10
    3    3    0.77537305E-01  0.56404447E-11
    4    3    0.81699762E-01  0.16994478E-10
    5    3    0.16187369E-01  0.73937401E-11
    6    3    0.13612615E-08  0.78161400E-10
    7    3   -0.36736902E-01  0.26035979E-11
    8    3   -0.11853763E-01 -0.24672243E-10
    1    4    0.34935487E-01 -0.11980847E-10
    2    4   -0.55056355E-09 -0.20470752E-10
    3    4   -0.81701950E-01  0.35118375E-11
    4    4    0.13250791E-02  0.64390403E-10
    5    4   -0.49298965E-02  0.35134146E-10
    6    4    0.19688958E-08 -0.33516374E-10
    7    4   -0.11853764E-01 -0.18415767E-10
    8    4    0.31454113E-01  0.61425823E-10
    1    5   -0.70641430E-01 -0.56311344E-10
    2    5    0.26072799E-09  0.42384188E-11
    3    5    0.14731254E+00  0.87982048E-10
    4    5    0.40320461E-01  0.50880397E-10
    5    5    0.83040023E-02  0.42151740E-10
    6    5   -0.29075759E-10  0.73185661E-10
    7    5    0.92551599E-02 -0.16151103E-10
    8    5   -0.34935468E-01  0.11936702E-10
    1    6   -0.95042261E-08  0.73799184E-10
    2    6    0.19346998E-01 -0.19764856E-10
    3    6    0.77973559E-08 -0.90130005E-10
    4    6   -0.10602462E-07  0.11394604E-09
    5    6    0.33164963E-10  0.10987229E-10
    6    6   -0.19469478E-01  0.21496260E-11
    7    6    0.93285431E-08 -0.97201865E-10
    8    6   -0.28433857E-08  0.44733535E-10
    1    7   -0.14731260E+00  0.55622152E-10
    2    7    0.89744596E-09  0.16162581E-10
    3    7    0.17448234E+00 -0.48327731E-10
    4    7   -0.90288606E-01 -0.28842959E-10
    5    7   -0.92584050E-02  0.38839983E-10
    6    7   -0.94614137E-08  0.38512212E-10
    7    7    0.77537305E-01 -0.52906556E-10
    8    7   -0.81701961E-01 -0.11527011E-09
    1    8   -0.40320431E-01  0.15663103E-10
    2    8   -0.51257912E-08 -0.44674867E-10
    3    8   -0.90288621E-01  0.62515094E-10
    4    8   -0.17122515E+00 -0.85611226E-10
    5    8   -0.34938777E-01 -0.10545557E-09
    6    8   -0.27686705E-08 -0.12063323E-09
    7    8    0.81699751E-01  0.25558266E-10
    8    8    0.13250790E-02 -0.16350036E-10

   -2    1    0
    1    1   -0.14627804E-02  0.18123721E-10
    2    1    0.84755995E-10  0.24984682E-10
    3    1   -0.79170844E-02 -0.35182772E-10
    4    1   -0.22240621E-02  0.24141106E-10
    5    1   -0.41603545E-02  0.20176092E-11
    6    1    0.58559314E-10  0.71419640E-11
    7    1   -0.26064727E-02 -0.20507318E-10
    8    1    0.79246358E-02 -0.20812504E-10
    1    2   -0.15134976E-09 -0.36981353E-10
    2    2    0.36659005E-02 -0.12370452E-11
    3    2    0.13576339E-09  0.61472081E-10
    4    2   -0.17242368E-09 -0.60305021E-10
    5    2    0.15137248E-09 -0.21478341E-10
    6    2   -0.96398583E-03 -0.48877569E-13
    7    2    0.10291669E-09  0.49598326E-10
    8    2    0.11580493E-11 -0.23215036E-10
    1    3   -0.30501352E-02  0.81351031E-10
    2    3    0.40571946E-10 -0.26751682E-10
    3    3   -0.21315624E-01  0.26352672E-10
    4    3    0.79297297E-02  0.18874630E-10
    5    3    0.26064747E-02 -0.12258583E-10
    6    3    0.15403296E-08 -0.63125506E-10
    7    3   -0.11260995E-01  0.40893677E-12
    8    3    0.11421489E-01 -0.13411668E-11
    1    4   -0.10572801E-01 -0.44762045E-10
    2    4   -0.73541686E-10  0.53740106E-10
    3    4    0.19854979E-01 -0.67899132E-11
    4    4   -0.17264702E-01  0.23391851E-10
    5    4   -0.79246385E-02  0.60387667E-11
    6    4   -0.16308775E-08  0.21113338E-10
    7    4    0.11421487E-01 -0.20593902E-10
    8    4   -0.53585448E-02 -0.30328198E-10
    1    5    0.55469449E-02 -0.27339797E-11
    2    5    0.18386557E-08  0.76085408E-11
    3    5   -0.34628850E-01 -0.34333608E-10
    4    5   -0.14570989E-01 -0.32612805E-10
    5    5   -0.14627831E-02 -0.25557195E-10
    6    5    0.19277177E-09 -0.20223185E-10
    7    5    0.30501407E-02  0.71911994E-10
    8    5    0.10572796E-01 -0.21725430E-10
    1    6    0.19436830E-08 -0.16187352E-10
    2    6   -0.14045127E-01 -0.16385435E-11
    3    6   -0.22380603E-08  0.91198240E-10
    4    6   -0.11457519E-08 -0.15071298E-10
    5    6   -0.49825449E-09 -0.55403284E-11
    6    6    0.36659004E-02  0.12003697E-11
    7    6    0.10236958E-08  0.48957221E-10
    8    6   -0.21835394E-09 -0.30529704E-10
    1    7    0.34628865E-01  0.54761608E-10
    2    7   -0.49136685E-09 -0.76362214E-10
    3    7   -0.57716365E-01  0.25013761E-10
    4    7    0.28033774E-01 -0.43147097E-10
    5    7    0.79170890E-02 -0.43468980E-10
    6    7    0.28846448E-08 -0.53474562E-10
    7    7   -0.21315620E-01 -0.64410456E-11
    8    7    0.19854981E-01  0.46906513E-10
    1    8    0.14570980E-01  0.30165724E-10
    2    8    0.93869408E-09  0.13383070E-10
    3    8    0.28033782E-01  0.92670940E-11
    4    8    0.62072803E-02  0.60808823E-11
    5    8    0.22240599E-02  0.40549460E-10
    6    8   -0.17055805E-08  0.56190400E-10
    7    8    0.79297306E-02 -0.29721467E-10
    8    8   -0.17264704E-01 -0.25638571E-10

   -2    2    0
    1    1    0.31217057E-02  0.10406095E-10
    2    1   -0.78914588E-10 -0.24207413E-10
    3    1    0.71116283E-02  0.97486099E-11
    4    1   -0.18008731E-02 -0.60774302E-12
    5    1   -0.26052483E-02 -0.61677052E-12
    6    1   -0.73559254E-09 -0.26225589E-10
    7    1    0.24200750E-02  0.11772285E-10
    8    1   -0.37358619E-02  0.27074176E-12
    1    2    0.91038239E-10  0.15741167E-10
    2    2    0.20516182E-02 -0.30894174E-11
    3    2   -0.14952197E-09 -0.45800117E-10
    4    2    0.55338742E-10  0.25492588E-10
    5    2    0.20663766E-09  0.63446956E-11
    6    2   -0.92161341E-03  0.43422150E-11
    7    2    0.19397865E-10 -0.20072098E-10
    8    2    0.15941135E-09  0.22289998E-10
    1    3   -0.61563550E-02 -0.37878501E-10
    2    3    0.21986905E-09  0.15921295E-10
    3    3    0.59888563E-02 -0.58798975E-11
    4    3    0.65905804E-02 -0.12715859E-10
    5    3   -0.24200738E-02 -0.72278225E-11
    6    3    0.13053277E-09  0.25341088E-10
    7    3   -0.86375805E-02  0.11124802E-10
    8    3    0.49534859E-02  0.21088090E-10
    1    4    0.82439609E-02  0.24570200E-10
    2    4   -0.13516472E-09 -0.27405602E-10
    3    4   -0.50697362E-02  0.18430366E-10
    4    4    0.37345038E-02 -0.12408231E-10
    5    4    0.37358606E-02 -0.59954541E-11
    6    4    0.57446677E-09 -0.31210426E-10
    7    4    0.49534865E-02  0.13519401E-10
    8    4    0.42746405E-03 -0.59643748E-11
    1    5   -0.24735819E-02 -0.22585281E-10
    2    5    0.82119146E-09 -0.17405804E-10
    3    5    0.13388827E-01  0.71687656E-11
    4    5   -0.84699559E-04  0.46079807E-11
    5    5    0.31217058E-02 -0.11895866E-10
    6    5   -0.53251027E-09 -0.76160735E-12
    7    5    0.61563540E-02 -0.24777938E-10
    8    5   -0.82439598E-02  0.37750652E-10
    1    6   -0.67049268E-09  0.25916317E-10
    2    6   -0.56040104E-02  0.43340947E-11
    3    6    0.10861292E-08 -0.52166736E-10
    4    6   -0.24216674E-10  0.16435079E-10
    5    6    0.24764686E-09 -0.13801481E-10
    6    6    0.20516182E-02  0.31095913E-11
    7    6    0.12567221E-08 -0.34882651E-10
    8    6   -0.92674151E-09  0.24867132E-10
    1    7   -0.13388832E-01 -0.19486053E-10
    2    7    0.85149146E-10  0.30884861E-10
    3    7    0.19556730E-01 -0.97883299E-11
    4    7   -0.10778133E-01  0.50665444E-11
    5    7   -0.71116290E-02  0.13114612E-10
    6    7   -0.14045495E-08  0.75275062E-10
    7    7    0.59888563E-02  0.29962952E-10
    8    7   -0.50697383E-02 -0.19602535E-10
    1    8    0.84702781E-04  0.12742724E-11
    2    8    0.46578625E-09  0.22560597E-11
    3    8   -0.10778134E-01 -0.43018047E-10
    4    8   -0.26965513E-02 -0.29950452E-10
    5    8    0.18008718E-02 -0.17262825E-10
    6    8    0.37226720E-09 -0.25570757E-11
    7    8    0.65905808E-02  0.31122899E-10
    8    8    0.37345037E-02 -0.13539531E-10

   -2    3    0
    1    1    0.20786531E-02 -0.27093605E-11
    2    1   -0.33503513E-10  0.56949455E-11
    3    1    0.17937488E-02  0.14858455E-10
    4    1    0.96419283E-04  0.58638754E-11
    5    1   -0.11971131E-02 -0.10126622E-11
    6    1   -0.11179816E-09 -0.15257349E-11
    7    1    0.25991930E-02  0.62787432E-11
    8    1    0.33547414E-04 -0.23507446E-11
    1    2   -0.41764591E-10 -0.14295258E-11
    2    2    0.51489297E-04  0.52119246E-12
    3    2   -0.50636736E-10  0.13267578E-10
    4    2   -0.37356062E-10 -0.79142737E-11
    5    2   -0.25369480E-10  0.49476082E-11
    6    2    0.14518956E-03 -0.50143917E-12
    7    2   -0.14013049E-10  0.49838896E-11
    8    2   -0.33098920E-10 -0.58814415E-11
    1    3    0.26862751E-02  0.92910358E-11
    2    3   -0.69418353E-10  0.19267236E-13
    3    3    0.15759191E-02 -0.16260434E-10
    4    3   -0.11314224E-02  0.29174588E-11
    5    3   -0.25991938E-02  0.72982887E-11
    6    3   -0.35501144E-09  0.64574873E-11
    7    3    0.22808747E-02 -0.14379642E-10
[...]
    2    2   -0.10365532E-08  0.22673877E-12 -0.57898246E-04 -0.35524274E-11  0.23246656E-10 -0.14779675E-11
    3    2   -0.20733674E-10 -0.10601410E-10  0.89175408E-11 -0.18237428E-10  0.24393789E-07 -0.12646103E-10
    4    2   -0.89213238E-11  0.20760892E-10  0.73738004E-11  0.33288613E-11  0.14601106E-02  0.20989594E-10
    5    2   -0.16787979E-10 -0.49471023E-11 -0.39936670E-11  0.18759335E-11 -0.24022368E-03  0.12540329E-10
    6    2    0.25354959E-04 -0.44574291E-11  0.10614828E-03 -0.58888778E-11  0.47361474E-10 -0.72832850E-11
    7    2    0.34132973E-10 -0.95467726E-11 -0.98435387E-12 -0.99758575E-12 -0.80296254E-03 -0.81873519E-11
    8    2    0.18261647E-10  0.21984292E-10 -0.11155147E-10  0.37178283E-11  0.10170846E-02  0.21844767E-11
    1    3    0.45997468E-04 -0.13850955E-10 -0.17625478E-07  0.61423086E-11  0.32408393E-11  0.50810023E-11
    2    3    0.39721469E-10  0.17318452E-10 -0.18992608E-10 -0.12100577E-10  0.16091212E-07 -0.12771599E-11
    3    3    0.37682519E-08  0.38713390E-12 -0.66208560E-03 -0.17246126E-11 -0.13125914E-10 -0.15528535E-11
    4    3    0.19939279E-02 -0.18222671E-10 -0.15893495E-08 -0.40732851E-11  0.44658613E-11  0.91866908E-11
    5    3    0.40675659E-03  0.66358323E-14  0.40892437E-03  0.83228139E-11 -0.85186587E-10  0.50930656E-11
    6    3    0.21360836E-09  0.22316082E-10  0.66736858E-10 -0.70367991E-11  0.80296251E-03 -0.18430960E-12
    7    3   -0.23543789E-03  0.10901541E-10  0.65112995E-03  0.11294577E-11 -0.99467817E-11 -0.26982486E-10
    8    3    0.16909917E-02 -0.73748841E-13  0.38790833E-03 -0.11502326E-10 -0.61951980E-10 -0.19660630E-10
    1    4    0.15196897E-07 -0.25402241E-11 -0.25558000E-03 -0.48530132E-11 -0.18435404E-11 -0.65963905E-11
    2    4   -0.16633884E-10 -0.32172978E-10  0.28927507E-10  0.99809239E-11 -0.29856624E-03  0.30262316E-12
    3    4    0.68907910E-03  0.54693528E-11  0.86652321E-08  0.15515361E-10 -0.28569866E-11 -0.69173443E-11
    4    4   -0.14495214E-09  0.28607303E-12  0.69288705E-05  0.25279145E-11 -0.14835746E-10 -0.15971146E-10
    5    4    0.12713512E-02  0.78956786E-11  0.22241064E-03  0.88709646E-11  0.13481531E-09 -0.10158964E-10
    6    4    0.17583884E-09  0.17889974E-11  0.77118553E-10  0.19899730E-10 -0.10170845E-02  0.25476423E-10
    7    4    0.17264406E-02  0.15695223E-10 -0.17018496E-03  0.98511690E-11  0.12030079E-10  0.53735393E-11
    8    4    0.17245015E-03 -0.65382608E-11  0.44625078E-03  0.12328537E-10  0.76017275E-10  0.12648144E-10
    1    5    0.77362089E-03 -0.95864260E-11  0.36417412E-04  0.96239448E-11 -0.42816522E-10 -0.67422321E-11
    2    5   -0.94359814E-11 -0.15863036E-10 -0.27465751E-11  0.26174759E-10  0.28578472E-03  0.16737684E-10
    3    5    0.48102812E-03  0.84680188E-11  0.84649738E-03  0.16056274E-10  0.37530651E-10  0.35268623E-11
    4    5    0.63988356E-03 -0.15238334E-10  0.17317209E-03 -0.77911009E-11  0.57256233E-11 -0.72632761E-11
    5    5    0.18949679E-08  0.11747773E-11 -0.23475288E-04  0.79371171E-11  0.15973283E-09 -0.19589601E-10
    6    5    0.31280191E-10  0.39937038E-11 -0.10486211E-09  0.17428861E-10 -0.68178685E-03 -0.76126930E-11
    7    5   -0.43222099E-04  0.17439828E-10  0.10892249E-04 -0.47695461E-11 -0.22369788E-11  0.13991050E-10
    8    5    0.16746552E-04  0.90060443E-11 -0.54484676E-03 -0.50350052E-11  0.21751462E-10 -0.50964549E-11
    1    6    0.53817137E-10 -0.49630226E-11  0.54776482E-11 -0.35417177E-12  0.28578481E-03 -0.70730782E-11
    2    6    0.34120362E-04  0.32156543E-11  0.33209383E-04  0.79114760E-11  0.32665677E-10  0.61269875E-11
    3    6    0.58627958E-10 -0.11918692E-10  0.86166472E-10 -0.38733942E-11 -0.38930975E-03 -0.15896207E-10
    4    6   -0.12174681E-10  0.94740089E-11  0.55250682E-10  0.33780645E-12 -0.14351453E-03  0.12592531E-11
    5    6   -0.16045422E-10 -0.66890742E-11 -0.17563566E-10 -0.29856766E-11 -0.89117107E-03 -0.18256064E-10
    6    6    0.10369596E-08  0.37777940E-14  0.57898243E-04 -0.86073427E-11 -0.30599715E-09  0.35828719E-11
    7    6    0.13419569E-09  0.79536090E-11 -0.95936298E-11 -0.17208081E-13 -0.16335205E-07 -0.98870112E-11
    8    6    0.33366972E-10  0.17753239E-10 -0.22466330E-10 -0.72862540E-12  0.29856624E-03  0.23759487E-10
    1    7   -0.51222425E-03  0.74888901E-11  0.31055435E-03  0.70306627E-11  0.56618557E-11 -0.29560752E-11
    2    7    0.12480472E-10  0.31502517E-10 -0.40774541E-10 -0.13420203E-10  0.38930982E-03 -0.22235375E-10
    3    7    0.76933326E-03  0.35318703E-10  0.10741673E-05 -0.65489152E-11 -0.13040938E-10  0.40282316E-12
    4    7    0.35581449E-03  0.17510654E-10 -0.43300044E-03  0.15464500E-11 -0.10134161E-11 -0.27298221E-11
    5    7   -0.79793598E-03  0.23207766E-10  0.10307848E-03 -0.11369711E-10  0.16402148E-10 -0.38050658E-11
    6    7   -0.18786509E-10 -0.17802411E-12  0.55671249E-11 -0.11242031E-10 -0.24612027E-07 -0.34859776E-10
    7    7   -0.37996253E-08 -0.56618859E-12  0.66208561E-03  0.23838115E-11 -0.30109431E-11 -0.44423167E-10
    8    7    0.64752276E-03 -0.17040171E-10 -0.13705392E-04 -0.51212815E-11  0.65552020E-11 -0.62829201E-11
    1    8   -0.64684780E-03 -0.12230534E-10 -0.11357985E-03  0.93748990E-13 -0.28676297E-10 -0.53056953E-12
    2    8   -0.42182719E-10 -0.12926090E-11  0.15753548E-10 -0.18217388E-10  0.14351455E-03 -0.20959801E-10
    3    8    0.36085099E-03  0.15866857E-10 -0.23073103E-03  0.96253107E-11  0.24003353E-10  0.11630879E-10
    4    8   -0.14059405E-02  0.79520441E-11  0.21715636E-03  0.55464433E-11 -0.81771877E-11 -0.99765668E-11
    5    8   -0.46076849E-04 -0.17454455E-10  0.38098443E-03 -0.17229556E-10  0.27622366E-09  0.20081935E-10
    6    8   -0.11042010E-10 -0.12441980E-10  0.12139962E-09  0.90532191E-12 -0.14601105E-02  0.12100876E-10
    7    8    0.18736775E-02 -0.92006740E-11  0.24937489E-04 -0.11567488E-10  0.43335565E-11  0.64302259E-11
    8    8    0.14878751E-09 -0.33977682E-12 -0.69288528E-05  0.14528695E-10  0.11505668E-09  0.18111451E-11

    5    2    0
    1    1   -0.65369814E-04  0.19190457E-11 -0.12322027E-04  0.36567320E-11  0.18168573E-11 -0.83443457E-12
    2    1    0.21783516E-10  0.16093457E-10 -0.59254216E-11 -0.16380115E-10 -0.52947902E-03 -0.78377092E-11
    3    1    0.98687647E-04 -0.48116199E-12 -0.24345840E-04  0.21694524E-11 -0.24884830E-10  0.56702999E-11
    4    1    0.15988719E-03  0.72960172E-13  0.10489860E-02 -0.10168408E-10  0.95333381E-11 -0.15393643E-10
    5    1    0.61808812E-03 -0.34907974E-11  0.48492734E-03 -0.18956527E-10 -0.11012135E-09  0.27350242E-10
    6    1    0.11034826E-09  0.16982567E-10  0.89347954E-10  0.18396319E-11  0.98201925E-03 -0.21288900E-10
    7    1   -0.23323571E-03  0.59112886E-11 -0.26621032E-03 -0.35784959E-11 -0.22015835E-10  0.11133516E-10
    8    1    0.40851023E-03  0.49951128E-11  0.76251649E-03 -0.53084383E-11 -0.90479114E-10 -0.82393764E-11
    1    2   -0.46789265E-11  0.62188497E-11 -0.50270203E-11  0.11079328E-11  0.19621161E-03 -0.33923342E-12
    2    2   -0.48398177E-05 -0.12772210E-11  0.45114756E-04  0.14190749E-11  0.23558266E-11  0.21198948E-11
    3    2    0.26485319E-10  0.13843206E-10  0.80272939E-11  0.32117118E-11 -0.13299258E-02  0.38905497E-10
    4    2   -0.18758617E-10  0.30788497E-12 -0.19395998E-10 -0.11244855E-11  0.15370515E-03 -0.16225437E-11
    5    2    0.38816619E-10  0.38355636E-11  0.39135763E-10 -0.51771632E-11  0.98201955E-03 -0.10001954E-10
    6    2   -0.42177419E-03  0.22289157E-11 -0.29956592E-03  0.68027111E-11  0.10724918E-09  0.21133397E-11
    7    2   -0.81262072E-11  0.16471321E-10 -0.58263303E-12  0.14923448E-11 -0.14037990E-02  0.11882617E-10
    8    2   -0.67134433E-11 -0.44013654E-11  0.56933702E-11 -0.84462214E-11 -0.21163635E-03 -0.24109654E-10
    1    3   -0.51520619E-03  0.12875988E-10 -0.36749365E-03 -0.21091990E-11 -0.91820648E-11 -0.15262587E-10
    2    3   -0.41684558E-10 -0.83142074E-11  0.20161695E-10  0.83020706E-12 -0.29666285E-03 -0.13201166E-10
    3    3   -0.24481326E-03 -0.27761339E-11  0.71003353E-03  0.21403383E-11  0.23456952E-11 -0.73982213E-11
    4    3   -0.29417583E-03  0.88348322E-11 -0.30340861E-03  0.21633482E-11  0.18837652E-10  0.21776819E-11
    5    3    0.40437955E-03 -0.12579494E-10 -0.54872841E-03 -0.10589349E-11 -0.19634186E-09  0.96723180E-11
    6    3   -0.70644530E-10 -0.26050483E-10 -0.16001114E-09 -0.23694135E-11  0.14037993E-02 -0.17418140E-10
    7    3   -0.19609481E-02 -0.13322499E-10 -0.88659390E-03  0.28885822E-11 -0.77927364E-11  0.35695887E-11
    8    3   -0.10838305E-02 -0.13802980E-10 -0.11770715E-02  0.49666604E-11 -0.12544476E-09  0.10244565E-10
    1    4   -0.13728562E-02 -0.48834307E-11 -0.40526147E-04  0.81524862E-11 -0.28571378E-11  0.85179871E-11
    2    4    0.18064213E-10  0.65150002E-11 -0.46543538E-11 -0.20622978E-10 -0.25924562E-03  0.13695833E-11
    3    4    0.10037115E-02 -0.36336088E-11  0.36459934E-03 -0.28727804E-11  0.15903857E-10  0.40136398E-11
    4    4   -0.12325114E-03 -0.10089909E-11  0.28529525E-03  0.24649935E-11 -0.40185750E-11  0.20386696E-11
    5    4   -0.10052919E-02 -0.10886792E-10  0.56544094E-03 -0.11086300E-10 -0.22880326E-10  0.17346121E-10
    6    4   -0.28141872E-09 -0.48575288E-11  0.43994344E-10 -0.15517881E-10  0.21163643E-03 -0.11328075E-10
    7    4   -0.12645358E-02  0.10840590E-10 -0.49788667E-03 -0.35256928E-12  0.30699143E-10  0.86766436E-11
    8    4   -0.19258702E-02  0.11183450E-10 -0.25661993E-03  0.23997991E-11 -0.15069914E-10  0.80847318E-11
    1    5   -0.19570284E-05  0.67967947E-11  0.62211496E-03  0.88017857E-11 -0.10703709E-09 -0.74268363E-12
    2    5   -0.17025600E-10  0.10606929E-10 -0.60749883E-10 -0.30730269E-10  0.85624193E-03 -0.29659400E-11
    3    5   -0.98498846E-03  0.90548388E-11 -0.17359840E-03  0.44600891E-11 -0.18313447E-11 -0.18416800E-10
    4    5    0.31178162E-04 -0.22428057E-11 -0.70697784E-05 -0.12287199E-10  0.15175724E-10  0.77197893E-11
    5    5    0.65369743E-04 -0.11795096E-11  0.12322178E-04  0.32007318E-12  0.38197763E-10 -0.12540555E-10
    6    5   -0.16145747E-10  0.99566672E-11  0.14502233E-10 -0.18004288E-10  0.19621130E-03  0.66397326E-11
    7    5    0.53108244E-03  0.82277670E-11  0.35689924E-03 -0.19020225E-11 -0.32388503E-10  0.67849892E-11
    8    5    0.10824510E-02 -0.35514221E-11  0.23584058E-03 -0.31911405E-11 -0.33987318E-10  0.27141376E-10
    1    6   -0.70955523E-11  0.37669220E-11  0.62624098E-10 -0.46891421E-11  0.85624192E-03  0.79513872E-11
    2    6    0.13157128E-04 -0.30921016E-11  0.30737202E-03 -0.27508016E-11  0.10520877E-09  0.42102589E-11
    3    6    0.75390391E-11 -0.22315673E-11 -0.11857714E-10 -0.24567431E-11 -0.19343504E-07  0.16562651E-10
    4    6   -0.15145402E-10 -0.20550324E-10 -0.33036293E-10 -0.21570051E-11 -0.57805610E-04  0.58941838E-11
    5    6   -0.16763995E-09  0.85533353E-11  0.25757000E-10  0.89050551E-11 -0.52947909E-03  0.16784367E-10
    6    6    0.48398122E-05 -0.21166792E-12 -0.45114744E-04  0.49941106E-11 -0.10975123E-10 -0.46642994E-11
    7    6    0.75441247E-10  0.14666558E-11  0.49618741E-10  0.90994460E-11  0.29666278E-03 -0.45985972E-11
    8    6    0.63259422E-10 -0.20341338E-11  0.26639163E-10 -0.64902290E-11  0.25924557E-03 -0.16339340E-10
    1    7    0.12080917E-02  0.48818396E-12 -0.92292056E-04 -0.11140973E-10  0.87740700E-11  0.83594525E-11
    2    7   -0.30429537E-10  0.93566095E-12  0.15210447E-10  0.11379862E-10  0.19589450E-07  0.20392487E-10
    3    7    0.86815421E-05 -0.23147672E-10  0.45050895E-03 -0.12048965E-10 -0.11625646E-10 -0.24558780E-11
    4    7    0.12373356E-02  0.11114620E-10  0.93444864E-04  0.32918289E-11  0.10048430E-10  0.26746690E-10
    5    7    0.85807348E-04 -0.71837445E-11 -0.10019671E-02 -0.60125857E-11 -0.18993132E-09 -0.17176090E-10
    6    7    0.84170383E-10 -0.19168668E-10 -0.14510423E-09  0.12931621E-10  0.13299259E-02 -0.58075000E-11
    7    7    0.24481333E-03 -0.86027756E-12 -0.71003370E-03 -0.31895797E-11 -0.20329026E-10 -0.80716294E-11
    8    7    0.89093197E-03  0.35691561E-11 -0.28151645E-03  0.11664726E-10 -0.12541384E-09  0.13688247E-10
    1    8    0.16307735E-04 -0.27143201E-11 -0.22153773E-03 -0.10772456E-10 -0.68196911E-10  0.88075724E-11
    2    8    0.21017657E-10 -0.98909141E-12 -0.33517806E-10  0.15706550E-10  0.57805590E-04  0.12865108E-10
    3    8    0.13148132E-02 -0.11053855E-10  0.11190640E-05 -0.48142267E-11  0.70892213E-11  0.25099665E-11
    4    8    0.17210219E-04  0.18198170E-11 -0.32160988E-03  0.83262946E-11  0.19179221E-10 -0.88158661E-11
    5    8   -0.64287554E-03  0.26191194E-11  0.31562061E-03  0.10967992E-10  0.86415130E-10 -0.23220421E-10
    6    8   -0.12847743E-09 -0.79438198E-12  0.33308268E-10  0.13377062E-10 -0.15370525E-03  0.13863479E-10
    7    8   -0.28106471E-03 -0.81469934E-11 -0.13456827E-03 -0.16683813E-10 -0.46366713E-10 -0.11079577E-10
    8    8    0.12325114E-03  0.88805547E-12 -0.28529524E-03  0.35334001E-11 -0.62804115E-10  0.14149945E-10

    5    3    0
    1    1    0.43775221E-05  0.21713651E-11 -0.16324346E-04 -0.28169802E-11 -0.17107638E-10 -0.16435874E-10
    2    1   -0.83908405E-11 -0.64371060E-11  0.28233546E-10 -0.14132825E-10 -0.14288347E-03 -0.22389729E-12
    3    1    0.27838131E-03 -0.37245004E-11 -0.22178889E-03 -0.22117446E-12  0.92616193E-11 -0.59437497E-12
    4    1    0.16488334E-03  0.10111819E-11 -0.11178956E-02 -0.31577902E-12 -0.14517505E-10  0.11938490E-10
    5    1    0.34532711E-03 -0.84763054E-11  0.76311189E-03  0.89298775E-12 -0.12447333E-09 -0.16975127E-10
    6    1    0.25740301E-10 -0.11249975E-10  0.30657970E-10  0.24970963E-10  0.11150969E-02  0.15557161E-10
    7    1   -0.42670619E-03  0.16797379E-11 -0.14496078E-03 -0.24476114E-11 -0.12623241E-10  0.10350880E-10
    8    1   -0.14934223E-03  0.10788490E-10 -0.84370336E-03 -0.43529031E-11 -0.13550712E-09 -0.20572266E-11
    1    2    0.19534505E-10 -0.10161145E-10  0.54322798E-11  0.54033700E-12 -0.80955221E-03  0.24233530E-11
    2    2    0.36650616E-04 -0.16046494E-11 -0.26748744E-04  0.11413045E-11  0.20305972E-11  0.84805798E-11
    3    2   -0.24202953E-10  0.72910935E-12 -0.65861063E-11 -0.75277809E-11 -0.44681117E-03 -0.54834858E-11
    4    2    0.15090745E-10 -0.21814635E-11  0.12691835E-10 -0.68697392E-11 -0.98123286E-03  0.64192226E-11
    5    2   -0.44637663E-10  0.10985454E-10  0.18039816E-10  0.72838730E-12  0.11150968E-02 -0.17659900E-11
    6    2    0.35587333E-03 -0.44680315E-11 -0.14440531E-03 -0.32986533E-11  0.95032479E-10 -0.15750513E-10
    7    2    0.96957533E-11  0.57772851E-11  0.86560402E-11 -0.74691787E-11  0.40979691E-03  0.87098489E-11
    8    2   -0.13231684E-10  0.77676545E-11  0.28014366E-10  0.15308308E-10 -0.55864279E-03  0.43007165E-11
    1    3   -0.21166539E-03 -0.13013377E-11  0.44316348E-03  0.11262894E-10 -0.16685182E-10  0.15943414E-11
    2    3    0.55972603E-10 -0.20272542E-10 -0.19314469E-10  0.30016968E-10 -0.62340733E-03  0.30424794E-10
    3    3    0.25175281E-03  0.17706947E-11 -0.36901049E-03 -0.22748955E-11  0.39807501E-11 -0.13574084E-10
    4    3    0.15464230E-02 -0.30727996E-11  0.47978557E-03 -0.45117123E-11 -0.36809280E-13  0.14939585E-11
    5    3    0.79116785E-03  0.76885386E-11  0.74379553E-04 -0.25693369E-11  0.47962974E-10 -0.25413277E-10
    6    3    0.28158735E-09  0.40547165E-11  0.78691612E-10  0.23502251E-11 -0.40979669E-03  0.29663203E-10
    7    3   -0.69005810E-03 -0.30484785E-11 -0.88072555E-04  0.10420127E-10  0.92313906E-11 -0.13350901E-10
    8    3    0.16501009E-02  0.10044968E-10  0.90801304E-03  0.60028318E-11  0.43313527E-10 -0.10609386E-10
    1    4    0.73290962E-03  0.11836017E-10 -0.63731139E-03 -0.14773683E-10  0.90000234E-11 -0.77038139E-11
    2    4   -0.19413941E-10  0.17390494E-10  0.13587002E-10 -0.54150807E-11  0.15445841E-03 -0.10147594E-10
    3    4   -0.92010753E-03  0.44154568E-11  0.21104373E-04  0.25221766E-11  0.20014666E-10  0.89440791E-11
    4    4    0.36230884E-03  0.17365614E-11 -0.52030639E-03 -0.30799729E-11  0.10729951E-10  0.19664055E-10
    5    4    0.52560678E-03 -0.72289814E-11  0.58479398E-03  0.26612674E-10 -0.86394681E-10 -0.14289486E-10
    6    4    0.12484039E-09 -0.60271087E-11  0.45032896E-10  0.62630341E-11  0.55864277E-03  0.21966630E-10
    7    4    0.13670371E-02  0.63765308E-12  0.14405866E-02 -0.12962650E-12 -0.27218077E-10 -0.81232964E-12
    8    4    0.96021034E-03  0.89257832E-13 -0.48929773E-03 -0.15349928E-10 -0.64126330E-10 -0.79464105E-11
    1    5    0.21672694E-03  0.10931694E-11  0.12107722E-03 -0.21979738E-10 -0.42175162E-10  0.25608282E-10
    2    5   -0.27628155E-10 -0.14700177E-10 -0.17280825E-11  0.21992603E-10  0.39643345E-03  0.13577554E-12
    3    5   -0.49336836E-03 -0.44955201E-11 -0.27425716E-03 -0.80552686E-11 -0.11141295E-10 -0.77763483E-11
    4    5    0.41786911E-03  0.38983640E-11 -0.11956839E-02  0.12772068E-10  0.27954470E-10  0.27092659E-10
    5    5   -0.43774743E-05 -0.31765411E-11  0.16324273E-04  0.42796836E-11  0.10110594E-09  0.23611309E-11
    6    5    0.12080766E-10 -0.16066206E-10 -0.17633693E-09 -0.52329912E-11 -0.80955234E-03  0.66131020E-11
    7    5   -0.16197768E-03 -0.51341364E-12  0.15645250E-03 -0.22334300E-11 -0.86969802E-10 -0.33003299E-10
    8    5    0.38758299E-03 -0.72814576E-11 -0.92022878E-03  0.34292012E-11  0.94853679E-10 -0.13273135E-10
    1    6    0.75703466E-10 -0.15506903E-10 -0.20462496E-10 -0.60459584E-11  0.39643343E-03 -0.15631129E-10
    2    6    0.15168416E-03 -0.10627383E-10  0.87574935E-04 -0.24167423E-11  0.57538571E-10  0.41057766E-11
    3    6   -0.47411606E-10 -0.11552360E-10  0.36038129E-10 -0.68279538E-11  0.12274460E-03 -0.30589936E-10
    4    6    0.25329404E-10 -0.56455203E-11 -0.11837791E-09  0.19424490E-11 -0.25603775E-03 -0.33181910E-10
    5    6   -0.35923240E-10  0.17503978E-11 -0.83218245E-10 -0.10958787E-10 -0.14288362E-03 -0.68335129E-11
    6    6   -0.36650609E-04 -0.34142307E-12  0.26748739E-04  0.10579645E-11 -0.52928977E-10  0.10705590E-10
    7    6    0.65772081E-10  0.60879288E-12  0.11079163E-09 -0.38601933E-11  0.62340725E-03  0.24029335E-11
    8    6    0.29608586E-10 -0.54899460E-11 -0.10079057E-09  0.33432693E-11 -0.15445842E-03  0.19831017E-10
    1    7    0.80324346E-04 -0.55478349E-11  0.94987724E-03  0.17364483E-10 -0.11316665E-10  0.14862572E-10
    2    7    0.18747121E-10  0.69526540E-11 -0.32162506E-10  0.25985403E-10 -0.12274452E-03  0.16862423E-10
    3    7    0.14247340E-02  0.16715048E-10  0.32226416E-04  0.37217871E-11 -0.55481481E-11  0.37935847E-11
    4    7    0.83327844E-03 -0.93028834E-11  0.26008875E-03  0.24451033E-11 -0.10668590E-10  0.52952890E-11
    5    7   -0.13486076E-03  0.54312809E-11 -0.96444926E-04 -0.19359679E-10 -0.72363075E-10  0.12533888E-11
    6    7   -0.61317712E-10  0.12214936E-10 -0.40657259E-10 -0.12831982E-10  0.44681099E-03 -0.85128291E-11
    7    7   -0.25175289E-03  0.29651990E-11  0.36901058E-03 -0.52548755E-11  0.12342663E-10 -0.30248127E-11
    8    7   -0.73374164E-03  0.25464066E-11 -0.10432303E-03  0.16485288E-10 -0.26168106E-10  0.60027890E-11
    1    8    0.49960636E-03  0.35719176E-11 -0.46746028E-03  0.64188328E-11 -0.47944262E-10  0.44945483E-11
    2    8   -0.46370271E-10  0.29040893E-10 -0.17386559E-10 -0.21535070E-10  0.25603775E-03 -0.16161158E-10
    3    8    0.40852333E-03  0.60838062E-11  0.88229797E-03  0.35151255E-11 -0.12343296E-10 -0.88937286E-12
    4    8   -0.35169782E-03 -0.36688990E-11  0.58011298E-03 -0.15119617E-10  0.14246051E-10 -0.34188903E-11
    5    8    0.15387982E-03 -0.97361463E-11  0.65785427E-03 -0.21368768E-11 -0.12605518E-09  0.14707822E-10
    6    8   -0.54162622E-10  0.10594587E-10  0.90967636E-10 -0.27797434E-10  0.98123288E-03 -0.34316617E-10
    7    8    0.88664923E-03  0.10275216E-10  0.93867603E-03  0.11291817E-10 -0.50082745E-10  0.12433224E-10
    8    8   -0.36230883E-03  0.20862498E-11  0.52030639E-03 -0.26537960E-11 -0.52733644E-10  0.13297268E-10
